Sat Dec 23 17:46:29 +07 2023
cn218

                                 *****************
                                 * O   R   C   A *
                                 *****************

                                            #,                                       
                                            ###                                      
                                            ####                                     
                                            #####                                    
                                            ######                                   
                                           ########,                                 
                                     ,,################,,,,,                         
                               ,,#################################,,                 
                          ,,##########################################,,             
                       ,#########################################, ''#####,          
                    ,#############################################,,   '####,        
                  ,##################################################,,,,####,       
                ,###########''''           ''''###############################       
              ,#####''   ,,,,##########,,,,          '''####'''          '####       
            ,##' ,,,,###########################,,,                        '##       
           ' ,,###''''                  '''############,,,                           
         ,,##''                                '''############,,,,        ,,,,,,###''
      ,#''                                            '''#######################'''  
     '                                                          ''''####''''         
             ,#######,   #######,   ,#######,      ##                                
            ,#'     '#,  ##    ##  ,#'     '#,    #''#        ######   ,####,        
            ##       ##  ##   ,#'  ##            #'  '#       #        #'  '#        
            ##       ##  #######   ##           ,######,      #####,   #    #        
            '#,     ,#'  ##    ##  '#,     ,#' ,#      #,         ##   #,  ,#        
             '#######'   ##     ##  '#######'  #'      '#     #####' # '####'        



                  #######################################################
                  #                        -***-                        #
                  #          Department of theory and spectroscopy      #
                  #    Directorship and core code : Frank Neese         #
                  #        Max Planck Institute fuer Kohlenforschung    #
                  #                Kaiser Wilhelm Platz 1               #
                  #                 D-45470 Muelheim/Ruhr               #
                  #                      Germany                        #
                  #                                                     #
                  #                  All rights reserved                #
                  #                        -***-                        #
                  #######################################################


                         Program Version 5.0.3 -  RELEASE  -


 With contributions from (in alphabetic order):
   Daniel Aravena         : Magnetic Suceptibility
   Michael Atanasov       : Ab Initio Ligand Field Theory (pilot matlab implementation)
   Alexander A. Auer      : GIAO ZORA, VPT2 properties, NMR spectrum
   Ute Becker             : Parallelization
   Giovanni Bistoni       : ED, misc. LED, open-shell LED, HFLD
   Martin Brehm           : Molecular dynamics
   Dmytro Bykov           : SCF Hessian
   Vijay G. Chilkuri      : MRCI spin determinant printing, contributions to CSF-ICE
   Dipayan Datta          : RHF DLPNO-CCSD density
   Achintya Kumar Dutta   : EOM-CC, STEOM-CC
   Dmitry Ganyushin       : Spin-Orbit,Spin-Spin,Magnetic field MRCI
   Miquel Garcia          : C-PCM and meta-GGA Hessian, CC/C-PCM, Gaussian charge scheme
   Yang Guo               : DLPNO-NEVPT2, F12-NEVPT2, CIM, IAO-localization
   Andreas Hansen         : Spin unrestricted coupled pair/coupled cluster methods
   Benjamin Helmich-Paris : MC-RPA, TRAH-SCF, COSX integrals
   Lee Huntington         : MR-EOM, pCC
   Robert Izsak           : Overlap fitted RIJCOSX, COSX-SCS-MP3, EOM
   Marcus Kettner         : VPT2
   Christian Kollmar      : KDIIS, OOCD, Brueckner-CCSD(T), CCSD density, CASPT2, CASPT2-K
   Simone Kossmann        : Meta GGA functionals, TD-DFT gradient, OOMP2, MP2 Hessian
   Martin Krupicka        : Initial AUTO-CI
   Lucas Lang             : DCDCAS
   Marvin Lechner         : AUTO-CI (C++ implementation), FIC-MRCC
   Dagmar Lenk            : GEPOL surface, SMD
   Dimitrios Liakos       : Extrapolation schemes; Compound Job, initial MDCI parallelization
   Dimitrios Manganas     : Further ROCIS development; embedding schemes
   Dimitrios Pantazis     : SARC Basis sets
   Anastasios Papadopoulos: AUTO-CI, single reference methods and gradients
   Taras Petrenko         : DFT Hessian,TD-DFT gradient, ASA, ECA, R-Raman, ABS, FL, XAS/XES, NRVS
   Peter Pinski           : DLPNO-MP2, DLPNO-MP2 Gradient
   Christoph Reimann      : Effective Core Potentials
   Marius Retegan         : Local ZFS, SOC
   Christoph Riplinger    : Optimizer, TS searches, QM/MM, DLPNO-CCSD(T), (RO)-DLPNO pert. Triples
   Tobias Risthaus        : Range-separated hybrids, TD-DFT gradient, RPA, STAB
   Michael Roemelt        : Original ROCIS implementation
   Masaaki Saitow         : Open-shell DLPNO-CCSD energy and density
   Barbara Sandhoefer     : DKH picture change effects
   Avijit Sen             : IP-ROCIS
   Kantharuban Sivalingam : CASSCF convergence, NEVPT2, FIC-MRCI
   Bernardo de Souza      : ESD, SOC TD-DFT
   Georgi Stoychev        : AutoAux, RI-MP2 NMR, DLPNO-MP2 response
   Willem Van den Heuvel  : Paramagnetic NMR
   Boris Wezisla          : Elementary symmetry handling
   Frank Wennmohs         : Technical directorship


 We gratefully acknowledge several colleagues who have allowed us to
 interface, adapt or use parts of their codes:
   Stefan Grimme, W. Hujo, H. Kruse, P. Pracht,  : VdW corrections, initial TS optimization,
                  C. Bannwarth, S. Ehlert          DFT functionals, gCP, sTDA/sTD-DF
   Ed Valeev, F. Pavosevic, A. Kumar             : LibInt (2-el integral package), F12 methods
   Garnet Chan, S. Sharma, J. Yang, R. Olivares  : DMRG
   Ulf Ekstrom                                   : XCFun DFT Library
   Mihaly Kallay                                 : mrcc  (arbitrary order and MRCC methods)
   Jiri Pittner, Ondrej Demel                    : Mk-CCSD
   Frank Weinhold                                : gennbo (NPA and NBO analysis)
   Christopher J. Cramer and Donald G. Truhlar   : smd solvation model
   Lars Goerigk                                  : TD-DFT with DH, B97 family of functionals
   V. Asgeirsson, H. Jonsson                     : NEB implementation
   FAccTs GmbH                                   : IRC, NEB, NEB-TS, DLPNO-Multilevel, CI-OPT
                                                   MM, QMMM, 2- and 3-layer-ONIOM, Crystal-QMMM,
                                                   LR-CPCM, SF, NACMEs, symmetry and pop. for TD-DFT,
                                                   nearIR, NL-DFT gradient (VV10), updates on ESD,
                                                   ML-optimized integration grids
   S Lehtola, MJT Oliveira, MAL Marques          : LibXC Library
   Liviu Ungur et al                             : ANISO software


 Your calculation uses the libint2 library for the computation of 2-el integrals
 For citations please refer to: http://libint.valeyev.net

 Your ORCA version has been built with support for libXC version: 5.1.0
 For citations please refer to: https://tddft.org/programs/libxc/

 This ORCA versions uses:
   CBLAS   interface :  Fast vector & matrix operations
   LAPACKE interface :  Fast linear algebra routines
   SCALAPACK package :  Parallel linear algebra routines
   Shared memory     :  Shared parallel matrices
   BLAS/LAPACK       :  OpenBLAS 0.3.15  USE64BITINT DYNAMIC_ARCH NO_AFFINITY Nehalem SINGLE_THREADED
        Core in use  :  Nehalem
   Copyright (c) 2011-2014, The OpenBLAS Project


================================================================================

----- Orbital basis set information -----
Your calculation utilizes the basis: TZVP 

----- AuxJ basis set information -----
Your calculation utilizes the auxiliary basis: def2/J
   F. Weigend, Phys. Chem. Chem. Phys. 8, 1057 (2006).

================================================================================
                                        WARNINGS
                       Please study these warnings very carefully!
================================================================================


INFO   : the flag for use of the SHARK integral package has been found!

================================================================================
                                       INPUT FILE
================================================================================
NAME = zif7_lpA.inp
|  1> ! DFT B3LYP TZVP def2/J RIJCOSX
|  2> %maxcore 8000
|  3> 
|  4> * xyz 0 1
|  5>   C       34.610000000     27.730000000     26.070000000
|  6>   H       34.680000000     27.270000000     25.090000000
|  7>   C       35.180000000     28.540000000     28.000000000
|  8>   C       35.820000000     29.050000000     29.140000000
|  9>   H       36.880000000     29.300000000     29.130000000
| 10>   C       38.130000000     30.250000000     24.620000000
| 11>   C       37.280000000     29.840000000     23.590000000
| 12>   H       36.600000000     28.990000000     23.720000000
| 13>   C       35.010000000     29.540000000     30.140000000
| 14>   H       35.480000000     30.070000000     30.970000000
| 15>   C       37.040000000     30.750000000     22.580000000
| 16>   H       36.150000000     30.620000000     21.980000000
| 17>   N       38.440000000     29.660000000     25.830000000
| 18>   N       35.700000000     28.000000000     26.830000000
| 19>   Zn      37.670000000     27.880000000     26.400000000
| 20>   C       29.770000000     30.350000000     26.420000000
| 21>   H       29.380000000     30.090000000     27.400000000
| 22>   C       30.900000000     30.260000000     24.570000000
| 23>   C       31.820000000     30.000000000     23.540000000
| 24>   H       32.550000000     29.200000000     23.610000000
| 25>   C       33.770000000     28.570000000     27.880000000
| 26>   C       32.980000000     29.180000000     28.850000000
| 27>   H       31.930000000     29.430000000     28.670000000
| 28>   C       31.920000000     30.950000000     22.540000000
| 29>   H       32.670000000     30.820000000     21.760000000
| 30>   C       33.620000000     29.650000000     29.970000000
| 31>   H       33.080000000     30.370000000     30.590000000
| 32>   N       33.420000000     28.020000000     26.660000000
| 33>   N       30.650000000     29.570000000     25.740000000
| 34>   Zn      31.480000000     27.780000000     26.150000000
| 35>   C       39.260000000     30.550000000     26.440000000
| 36>   H       39.700000000     30.370000000     27.420000000
| 37>   C       38.800000000     31.500000000     24.550000000
| 38>   C       38.680000000     32.320000000     23.420000000
| 39>   H       38.980000000     33.370000000     23.460000000
| 40>   C       38.810000000     34.880000000     27.850000000
| 41>   C       38.710000000     33.900000000     28.830000000
| 42>   H       38.910000000     32.850000000     28.610000000
| 43>   C       37.830000000     31.900000000     22.420000000
| 44>   H       37.580000000     32.590000000     21.620000000
| 45>   C       38.090000000     34.260000000     30.010000000
| 46>   H       37.730000000     33.440000000     30.630000000
| 47>   N       39.530000000     34.900000000     26.670000000
| 48>   N       39.560000000     31.640000000     25.700000000
| 49>   Zn      40.640000000     33.290000000     26.140000000
| 50>   C       39.130000000     36.030000000     26.060000000
| 51>   H       39.510000000     36.330000000     25.080000000
| 52>   C       38.100000000     36.090000000     27.960000000
| 53>   C       37.410000000     36.420000000     29.130000000
| 54>   H       36.650000000     37.210000000     29.150000000
| 55>   C       35.100000000     37.820000000     24.640000000
| 56>   C       35.850000000     37.400000000     23.550000000
| 57>   H       36.930000000     37.230000000     23.630000000
| 58>   C       37.500000000     35.530000000     30.180000000
| 59>   H       36.830000000     35.670000000     31.030000000
| 60>   C       35.160000000     36.820000000     22.500000000
| 61>   H       35.730000000     36.170000000     21.850000000
| 62>   N       35.500000000     38.400000000     25.840000000
| 63>   N       38.310000000     36.820000000     26.790000000
| 64>   Zn      37.450000000     38.600000000     26.380000000
| 65>   C       29.570000000     35.850000000     26.230000000
| 66>   H       29.140000000     36.010000000     25.240000000
| 67>   C       30.010000000     34.960000000     28.160000000
| 68>   C       30.190000000     34.120000000     29.280000000
| 69>   H       29.770000000     33.110000000     29.300000000
| 70>   C       30.080000000     31.420000000     24.550000000
| 71>   C       30.220000000     32.380000000     23.550000000
| 72>   H       29.800000000     33.380000000     23.650000000
| 73>   C       31.220000000     34.440000000     30.140000000
| 74>   H       31.490000000     33.740000000     30.930000000
| 75>   C       31.160000000     32.120000000     22.560000000
| 76>   H       31.480000000     32.960000000     21.960000000
| 77>   N       29.390000000     31.480000000     25.770000000
| 78>   N       29.260000000     34.780000000     26.990000000
| 79>   Zn      28.290000000     33.080000000     26.420000000
| 80>   C       34.340000000     38.610000000     26.500000000
| 81>   H       34.310000000     39.100000000     27.480000000
| 82>   C       33.700000000     37.660000000     24.670000000
| 83>   C       33.010000000     37.090000000     23.590000000
| 84>   H       31.960000000     36.820000000     23.650000000
| 85>   C       30.760000000     36.150000000     28.020000000
| 86>   C       31.770000000     36.480000000     28.930000000
| 87>   H       32.460000000     37.300000000     28.740000000
| 88>   C       33.770000000     36.670000000     22.520000000
| 89>   H       33.290000000     36.120000000     21.710000000
| 90>   C       32.050000000     35.550000000     29.910000000
| 91>   H       32.970000000     35.670000000     30.490000000
| 92>   N       30.450000000     36.720000000     26.790000000
| 93>   N       33.230000000     38.220000000     25.840000000
| 94>   Zn      31.260000000     38.470000000     26.190000000
| 95> **                         ****END OF INPUT****
================================================================================

                       ****************************
                       * Single Point Calculation *
                       ****************************

---------------------------------
CARTESIAN COORDINATES (ANGSTROEM)
---------------------------------
  C     34.610000   27.730000   26.070000
  H     34.680000   27.270000   25.090000
  C     35.180000   28.540000   28.000000
  C     35.820000   29.050000   29.140000
  H     36.880000   29.300000   29.130000
  C     38.130000   30.250000   24.620000
  C     37.280000   29.840000   23.590000
  H     36.600000   28.990000   23.720000
  C     35.010000   29.540000   30.140000
  H     35.480000   30.070000   30.970000
  C     37.040000   30.750000   22.580000
  H     36.150000   30.620000   21.980000
  N     38.440000   29.660000   25.830000
  N     35.700000   28.000000   26.830000
  Zn    37.670000   27.880000   26.400000
  C     29.770000   30.350000   26.420000
  H     29.380000   30.090000   27.400000
  C     30.900000   30.260000   24.570000
  C     31.820000   30.000000   23.540000
  H     32.550000   29.200000   23.610000
  C     33.770000   28.570000   27.880000
  C     32.980000   29.180000   28.850000
  H     31.930000   29.430000   28.670000
  C     31.920000   30.950000   22.540000
  H     32.670000   30.820000   21.760000
  C     33.620000   29.650000   29.970000
  H     33.080000   30.370000   30.590000
  N     33.420000   28.020000   26.660000
  N     30.650000   29.570000   25.740000
  Zn    31.480000   27.780000   26.150000
  C     39.260000   30.550000   26.440000
  H     39.700000   30.370000   27.420000
  C     38.800000   31.500000   24.550000
  C     38.680000   32.320000   23.420000
  H     38.980000   33.370000   23.460000
  C     38.810000   34.880000   27.850000
  C     38.710000   33.900000   28.830000
  H     38.910000   32.850000   28.610000
  C     37.830000   31.900000   22.420000
  H     37.580000   32.590000   21.620000
  C     38.090000   34.260000   30.010000
  H     37.730000   33.440000   30.630000
  N     39.530000   34.900000   26.670000
  N     39.560000   31.640000   25.700000
  Zn    40.640000   33.290000   26.140000
  C     39.130000   36.030000   26.060000
  H     39.510000   36.330000   25.080000
  C     38.100000   36.090000   27.960000
  C     37.410000   36.420000   29.130000
  H     36.650000   37.210000   29.150000
  C     35.100000   37.820000   24.640000
  C     35.850000   37.400000   23.550000
  H     36.930000   37.230000   23.630000
  C     37.500000   35.530000   30.180000
  H     36.830000   35.670000   31.030000
  C     35.160000   36.820000   22.500000
  H     35.730000   36.170000   21.850000
  N     35.500000   38.400000   25.840000
  N     38.310000   36.820000   26.790000
  Zn    37.450000   38.600000   26.380000
  C     29.570000   35.850000   26.230000
  H     29.140000   36.010000   25.240000
  C     30.010000   34.960000   28.160000
  C     30.190000   34.120000   29.280000
  H     29.770000   33.110000   29.300000
  C     30.080000   31.420000   24.550000
  C     30.220000   32.380000   23.550000
  H     29.800000   33.380000   23.650000
  C     31.220000   34.440000   30.140000
  H     31.490000   33.740000   30.930000
  C     31.160000   32.120000   22.560000
  H     31.480000   32.960000   21.960000
  N     29.390000   31.480000   25.770000
  N     29.260000   34.780000   26.990000
  Zn    28.290000   33.080000   26.420000
  C     34.340000   38.610000   26.500000
  H     34.310000   39.100000   27.480000
  C     33.700000   37.660000   24.670000
  C     33.010000   37.090000   23.590000
  H     31.960000   36.820000   23.650000
  C     30.760000   36.150000   28.020000
  C     31.770000   36.480000   28.930000
  H     32.460000   37.300000   28.740000
  C     33.770000   36.670000   22.520000
  H     33.290000   36.120000   21.710000
  C     32.050000   35.550000   29.910000
  H     32.970000   35.670000   30.490000
  N     30.450000   36.720000   26.790000
  N     33.230000   38.220000   25.840000
  Zn    31.260000   38.470000   26.190000

----------------------------
CARTESIAN COORDINATES (A.U.)
----------------------------
  NO LB      ZA    FRAG     MASS         X           Y           Z
   0 C     6.0000    0    12.011   65.403421   52.402106   49.265160
   1 H     1.0000    0     1.008   65.535702   51.532832   47.413229
   2 C     6.0000    0    12.011   66.480565   53.932784   52.912332
   3 C     6.0000    0    12.011   67.689990   54.896544   55.066620
   4 H     1.0000    0     1.008   69.693100   55.368976   55.047722
   5 C     6.0000    0    12.011   72.055257   57.164216   46.525057
   6 C     6.0000    0    12.011   70.448990   56.389428   44.578639
   7 H     1.0000    0     1.008   69.163977   54.783161   44.824304
   8 C     6.0000    0    12.011   66.159312   55.822510   56.956346
   9 H     1.0000    0     1.008   67.047483   56.824065   58.524818
  10 C     6.0000    0    12.011   69.995456   58.109079   42.670016
  11 H     1.0000    0     1.008   68.313600   57.863414   41.536180
  12 N     7.0000    0    14.007   72.641073   56.049277   48.811626
  13 N     7.0000    0    14.007   67.463223   52.912332   50.701352
  14 Zn   30.0000    0    65.380   71.185983   52.685565   49.888770
  15 C     6.0000    0    12.011   56.257147   57.353188   49.926564
  16 H     1.0000    0     1.008   55.520154   56.861859   51.778496
  17 C     6.0000    0    12.011   58.392538   57.183113   46.430571
  18 C     6.0000    0    12.011   60.131086   56.691784   44.484153
  19 H     1.0000    0     1.008   61.510586   55.180003   44.616434
  20 C     6.0000    0    12.011   63.816052   53.989476   52.685565
  21 C     6.0000    0    12.011   62.323168   55.142209   54.518599
  22 H     1.0000    0     1.008   60.338955   55.614640   54.178448
  23 C     6.0000    0    12.011   60.320058   58.487024   42.594427
  24 H     1.0000    0     1.008   61.737353   58.241359   41.120441
  25 C     6.0000    0    12.011   63.532593   56.030380   56.635092
  26 H     1.0000    0     1.008   62.512141   57.390983   57.806722
  27 N     7.0000    0    14.007   63.154647   52.950126   50.380099
  28 N     7.0000    0    14.007   57.920106   55.879202   48.641551
  29 Zn   30.0000    0    65.380   59.488579   52.496592   49.416338
  30 C     6.0000    0    12.011   74.190648   57.731133   49.964359
  31 H     1.0000    0     1.008   75.022128   57.390983   51.816291
  32 C     6.0000    0    12.011   73.321374   59.526373   46.392777
  33 C     6.0000    0    12.011   73.094607   61.075949   44.257386
  34 H     1.0000    0     1.008   73.661525   63.060161   44.332975
  35 C     6.0000    0    12.011   73.340271   65.913648   52.628873
  36 C     6.0000    0    12.011   73.151299   64.061716   54.480804
  37 H     1.0000    0     1.008   73.529244   62.077503   54.065065
  38 C     6.0000    0    12.011   71.488340   60.282264   42.367660
  39 H     1.0000    0     1.008   71.015908   61.586175   40.855879
  40 C     6.0000    0    12.011   71.979668   64.742017   56.710681
  41 H     1.0000    0     1.008   71.299367   63.192442   57.882311
  42 N     7.0000    0    14.007   74.700874   65.951442   50.398996
  43 N     7.0000    0    14.007   74.757566   59.790935   48.565962
  44 Zn   30.0000    0    65.380   76.798470   62.908983   49.397441
  45 C     6.0000    0    12.011   73.944984   68.086833   49.246263
  46 H     1.0000    0     1.008   74.663080   68.653750   47.394331
  47 C     6.0000    0    12.011   71.998566   68.200216   52.836743
  48 C     6.0000    0    12.011   70.694655   68.823826   55.047722
  49 H     1.0000    0     1.008   69.258463   70.316709   55.085517
  50 C     6.0000    0    12.011   66.329387   71.469442   46.562852
  51 C     6.0000    0    12.011   67.746682   70.675757   44.503050
  52 H     1.0000    0     1.008   69.787586   70.354504   44.654229
  53 C     6.0000    0    12.011   70.864730   67.141970   57.031935
  54 H     1.0000    0     1.008   69.598614   67.406531   58.638202
  55 C     6.0000    0    12.011   66.442771   69.579716   42.518838
  56 H     1.0000    0     1.008   67.519915   68.351394   41.290516
  57 N     7.0000    0    14.007   67.085278   72.565484   48.830523
  58 N     7.0000    0    14.007   72.395408   69.579716   50.625763
  59 Zn   30.0000    0    65.380   70.770244   72.943429   49.850975
  60 C     6.0000    0    12.011   55.879202   67.746682   49.567516
  61 H     1.0000    0     1.008   55.066620   68.049038   47.696688
  62 C     6.0000    0    12.011   56.710681   66.064826   53.214688
  63 C     6.0000    0    12.011   57.050832   64.477456   55.331181
  64 H     1.0000    0     1.008   56.257147   62.568832   55.368976
  65 C     6.0000    0    12.011   56.842962   59.375195   46.392777
  66 C     6.0000    0    12.011   57.107524   61.189332   44.503050
  67 H     1.0000    0     1.008   56.313839   63.079058   44.692023
  68 C     6.0000    0    12.011   58.997250   65.082168   56.956346
  69 H     1.0000    0     1.008   59.507476   63.759360   58.449229
  70 C     6.0000    0    12.011   58.883866   60.698003   42.632222
  71 H     1.0000    0     1.008   59.488579   62.285373   41.498386
  72 N     7.0000    0    14.007   55.539051   59.488579   48.698242
  73 N     7.0000    0    14.007   55.293387   65.724675   51.003708
  74 Zn   30.0000    0    65.380   53.460352   62.512141   49.926564
  75 C     6.0000    0    12.011   64.893195   72.962326   50.077743
  76 H     1.0000    0     1.008   64.836504   73.888292   51.929674
  77 C     6.0000    0    12.011   63.683771   71.167086   46.619544
  78 C     6.0000    0    12.011   62.379860   70.089942   44.578639
  79 H     1.0000    0     1.008   60.395647   69.579716   44.692023
  80 C     6.0000    0    12.011   58.127976   68.313600   52.950126
  81 C     6.0000    0    12.011   60.036599   68.937209   54.669777
  82 H     1.0000    0     1.008   61.340510   70.486785   54.310729
  83 C     6.0000    0    12.011   63.816052   69.296257   42.556633
  84 H     1.0000    0     1.008   62.908983   68.256908   41.025954
  85 C     6.0000    0    12.011   60.565723   67.179764   56.521709
  86 H     1.0000    0     1.008   62.304271   67.406531   57.617750
  87 N     7.0000    0    14.007   57.542161   69.390744   50.625763
  88 N     7.0000    0    14.007   62.795599   72.225333   48.830523
  89 Zn   30.0000    0    65.380   59.072839   72.697764   49.491927

--------------------------------
INTERNAL COORDINATES (ANGSTROEM)
--------------------------------
 C      0   0   0     0.000000000000     0.00000000     0.00000000
 H      1   0   0     1.084850220076     0.00000000     0.00000000
 C      1   2   0     2.169308645629   160.92091028     0.00000000
 C      3   1   2     1.403317497931   168.03580277    13.01599400
 H      4   3   1     1.089128091640   121.32066121     8.23231832
 C      1   2   3     4.565446308960    84.11062371    46.67532456
 C      6   1   2     1.396960987286    66.61184499    29.83679312
 H      7   6   1     1.096266390984   121.16816328   340.09698742
 C      4   3   1     1.377025780441   116.80738358   171.96035050
 H      9   4   3     1.091192008768   118.15438256   188.60541957
 C      7   6   1     1.380507153187   116.85580167   141.57448083
 H     11   7   6     1.081203033662   118.02446822   201.43631055
 N      6   1   2     1.381412320779    70.06708309   233.15921714
 N      1   2   8     1.355949851580   122.60771364   307.41676724
 Zn    14   1   2     2.019950494443   130.75614836     7.77841168
 C      1   2  14     5.514752940976   108.38559317   158.80456628
 H     16   1   2     1.086324076876   104.98875795   135.60945792
 C     16   1   2     2.169677395375    57.93282933   324.41467537
 C     18  16   1     1.405311353402   166.79897616     6.98446859
 H     19  18  16     1.085264944610   121.96906257    11.90543120
 C      3   1   2     1.415415133450    70.77581131   184.09745754
 C     21   3   1     1.391797399049   121.04038230   186.16539341
 H     22  21   3     1.094257739292   122.01512273   164.86987395
 C     19  18  16     1.382931668594   116.75846451   203.22186418
 H     24  19  18     1.089862376633   119.03444766   175.81532343
 C     22  21   3     1.372916603440   117.00017080   354.88949053
 H     26  22  21     1.092886087385   117.25803235   162.80311930
 N      1   2  14     1.359521974813   122.61286530   183.34999402
 N     16   1   2     1.358381389743    29.17458494     2.64580725
 Zn    29  16   1     2.015217109892   132.45507055    59.75217512
 C     13   6   1     1.355212160512   104.45138302   212.10532548
 H     31  13   6     1.089219904335   122.74328834   181.11241557
 C      6   1   2     1.419964788296   149.92326582   140.93863420
 C     33   6   1     1.401320805526   120.96183799   260.91165359
 H     34  33   6     1.092748827499   120.61343852   164.63372469
 C     31  13   6     4.575969842558   134.47635537    61.36233788
 C     36  31  13     1.389532295415    63.70652825   100.91115531
 H     37  36  31     1.091283647820   121.54861857     6.69164381
 C     34  33   6     1.378005805503   117.36462135     3.59470402
 H     39  34  33     1.085633455638   118.88710004   169.19225282
 C     37  36  31     1.380724447527   116.81886638   199.53059648
 H     41  37  36     1.089219904335   116.01390952   160.99655973
 N     36  31  13     1.382461572703    72.51040509   257.18142070
 N     31  13   6     1.351184665396   114.68367952   356.96508161
 Zn    44  31  13     2.020519735118   131.16138063   176.61178608
 C     43  36  31     1.344990706288   104.14520695   145.03687624
 H     46  43  36     1.093069073755   122.26369411   181.02293630
 C     36  31  13     1.407231324268   152.53933118   353.75858174
 C     48  36  31     1.397819730867   121.16295806   100.31813105
 H     49  48  36     1.096403210502   121.83965196   196.30060486
 C     46  43  36     4.632645032808   136.24930882   302.71099204
 C     51  46  43     1.388164255411    69.74368070   252.84644731
 H     52  51  46     1.096220780682   121.46008474   341.44198084
 C     49  48  36     1.379383920451   116.91156425     2.29770064
 H     54  49  48     1.091329464461   118.03773381   191.03199685
 C     52  51  46     1.383835250310   116.94941452   142.25619176
 H     56  52  51     1.081619156635   116.42896802   202.64572377
 N     51  46  43     1.391545902944    69.30844717   101.48606526
 N     46  43  36     1.352553141285   115.22905062     6.14721037
 Zn    59  46  43     2.018935363007   131.57489720   179.17189173
 C     16   1   2     5.506913836261   120.27676325   253.28939089
 H     61  16   1     1.091146186356   101.07342285   107.94391951
 C     61  16   1     2.170391669722    63.41065880   276.74015290
 C     63  61  16     1.411523999088   167.28227177   344.54963902
 H     64  63  61     1.094029250066   120.99364610   349.10203013
 C     18  16   1     1.420704050814    71.18771117   205.77143030
 C     66  18  16     1.393269536020   120.97708851   171.05890359
 H     67  66  18     1.089219904335   121.86683867   196.22409867
 C     64  63  61     1.379456414679   116.86200053   149.87749307
 H     69  64  63     1.089495295997   119.21267549   189.12527969
 C     67  66  18     1.389712200421   116.76656145     2.22298164
 H     71  67  66     1.080740486889   116.76661695   197.34158586
 N     16   1   2     1.357865972768   127.63238601   289.76133340
 N     61  16   1     1.348554781980    36.53037241   238.87904625
 Zn    74  61  16     2.038577935719   127.84053481   311.74615053
 C     58  51  46     1.351036639029   103.84237134   215.25156380
 H     76  58  51     1.096083938392   121.98947477   182.48913049
 C     51  46  43     1.409432509913   144.45942748     8.64266225
 C     78  51  46     1.402640367307   121.22366859   260.13985140
 H     79  78  51     1.085817664251   122.28999212   170.51598369
 C     63  61  16     1.413577023016    70.99107693   143.44306914
 C     81  63  61     1.398963902322   121.14511543   190.14785988
 H     82  81  63     1.088393311262   121.45727532   169.55719929
 C     79  78  51     1.378005805503   116.77087456     1.44158581
 H     84  79  78     1.090412765883   119.19320571   173.11742071
 C     82  81  63     1.379746353501   116.71387541     4.04277282
 H     86  82  81     1.094166349327   118.24321605   166.44455973
 N     61  16   1     1.358270959713   127.01050476   321.76026986
 N     76  58  51     1.348999629355   114.99507328     0.02988173
 Zn    89  76  58     2.016407696871   133.08858595   188.71717653

---------------------------
INTERNAL COORDINATES (A.U.)
---------------------------
 C      0   0   0     0.000000000000     0.00000000     0.00000000
 H      1   0   0     2.050069812269     0.00000000     0.00000000
 C      1   2   0     4.099399240186   160.92091028     0.00000000
 C      3   1   2     2.651885750030   168.03580277    13.01599400
 H      4   3   1     2.058153817960   121.32066121     8.23231832
 C      1   2   3     8.627443203057    84.11062371    46.67532456
 C      6   1   2     2.639873685743    66.61184499    29.83679312
 H      7   6   1     2.071643248781   121.16816328   340.09698742
 C      4   3   1     2.602201604383   116.80738358   171.96035050
 H      9   4   3     2.062054056096   118.15438256   188.60541957
 C      7   6   1     2.608780445442   116.85580167   141.57448083
 H     11   7   6     2.043177628786   118.02446822   201.43631055
 N      6   1   2     2.610490964297    70.06708309   233.15921714
 N      1   2   8     2.562373870817   122.60771364   307.41676724
 Zn    14   1   2     3.817153238576   130.75614836     7.77841168
 C      1   2  14    10.421372754681   108.38559317   158.80456628
 H     16   1   2     2.052854997980   104.98875795   135.60945792
 C     16   1   2     4.100096076218    57.93282933   324.41467537
 C     18  16   1     2.655653590820   166.79897616     6.98446859
 H     19  18  16     2.050853528059   121.96906257    11.90543120
 C      3   1   2     2.674746968029    70.77581131   184.09745754
 C     21   3   1     2.630115918107   121.04038230   186.16539341
 H     22  21   3     2.067847447185   122.01512273   164.86987395
 C     19  18  16     2.613362115569   116.75846451   203.22186418
 H     24  19  18     2.059541415501   119.03444766   175.81532343
 C     22  21   3     2.594436385214   117.00017080   354.88949053
 H     26  22  21     2.065255400731   117.25803235   162.80311930
 N      1   2  14     2.569124205445   122.61286530   183.34999402
 N     16   1   2     2.566968812030    29.17458494     2.64580725
 Zn    29  16   1     3.808208438087   132.45507055    59.75217512
 C     13   6   1     2.560979836728   104.45138302   212.10532548
 H     31  13   6     2.058327318809   122.74328834   181.11241557
 C      6   1   2     2.683344569691   149.92326582   140.93863420
 C     33   6   1     2.648112548210   120.96183799   260.91165359
 H     34  33   6     2.064996017136   120.61343852   164.63372469
 C     31  13   6     8.647329799517   134.47635537    61.36233788
 C     36  31  13     2.625835492572    63.70652825   100.91115531
 H     37  36  31     2.062227228807   121.54861857     6.69164381
 C     34  33   6     2.604053583354   117.36462135     3.59470402
 H     39  34  33     2.051549912978   118.88710004   169.19225282
 C     37  36  31     2.609191072237   116.81886638   199.53059648
 H     41  37  36     2.058327318809   116.01390952   160.99655973
 N     36  31  13     2.612473763078    72.51040509   257.18142070
 N     31  13   6     2.553368973952   114.68367952   356.96508161
 Zn    44  31  13     3.818228947556   131.16138063   176.61178608
 C     43  36  31     2.541664087553   104.14520695   145.03687624
 H     46  43  36     2.065601194856   122.26369411   181.02293630
 C     36  31  13     2.659281809941   152.53933118   353.75858174
 C     48  36  31     2.641496475929   121.16295806   100.31813105
 H     49  48  36     2.071901800202   121.83965196   196.30060486
 C     46  43  36     8.754430387678   136.24930882   302.71099204
 C     51  46  43     2.623250271625    69.74368070   252.84644731
 H     52  51  46     2.071557057803   121.46008474   341.44198084
 C     49  48  36     2.606657843188   116.91156425     2.29770064
 H     54  49  48     2.062313809710   118.03773381   191.03199685
 C     52  51  46     2.615069637552   116.94941452   142.25619176
 H     56  52  51     2.043963987243   116.42896802   202.64572377
 N     51  46  43     2.629640659344    69.30844717   101.48606526
 N     46  43  36     2.555955018604   115.22905062     6.14721037
 Zn    59  46  43     3.815234918172   131.57489720   179.17189173
 C     16   1   2    10.406558993634   120.27676325   253.28939089
 H     61  16   1     2.061967464286   101.07342285   107.94391951
 C     61  16   1     4.101445859119    63.41065880   276.74015290
 C     63  61  16     2.667393789733   167.28227177   344.54963902
 H     64  63  61     2.067415665124   120.99364610   349.10203013
 C     18  16   1     2.684741573391    71.18771117   205.77143030
 C     66  18  16     2.632897853812   120.97708851   171.05890359
 H     67  66  18     2.058327318809   121.86683867   196.22409867
 C     64  63  61     2.606794837425   116.86200053   149.87749307
 H     69  64  63     2.058847733630   119.21267549   189.12527969
 C     67  66  18     2.626175463765   116.76656145     2.22298164
 H     71  67  66     2.042303542060   116.76661695   197.34158586
 N     16   1   2     2.565994815101   127.63238601   289.76133340
 N     61  16   1     2.548399214531    36.53037241   238.87904625
 Zn    74  61  16     3.852354001163   127.84053481   311.74615053
 C     58  51  46     2.553089244659   103.84237134   215.25156380
 H     76  58  51     2.071298463350   121.98947477   182.48913049
 C     51  46  43     2.663441447981   144.45942748     8.64266225
 C     78  51  46     2.650606158594   121.22366859   260.13985140
 H     79  78  51     2.051898016809   122.28999212   170.51598369
 C     63  61  16     2.671273442705    70.99107693   143.44306914
 C     81  63  61     2.643658646630   121.14511543   190.14785988
 H     82  81  63     2.056765284277   121.45727532   169.55719929
 C     79  78  51     2.604053583354   116.77087456     1.44158581
 H     84  79  78     2.060581500450   119.19320571   173.11742071
 C     82  81  63     2.607342742394   116.71387541     4.04277282
 H     86  82  81     2.067674745181   118.24321605   166.44455973
 N     61  16   1     2.566760129516   127.01050476   321.76026986
 N     76  58  51     2.549239854242   114.99507328     0.02988173
 Zn    89  76  58     3.810458321417   133.08858595   188.71717653

---------------------
BASIS SET INFORMATION
---------------------
There are 4 groups of distinct atoms

 Group   1 Type C   : 11s6p1d contracted to 5s3p1d pattern {62111/411/1}
 Group   2 Type H   : 5s1p contracted to 3s1p pattern {311/1}
 Group   3 Type N   : 11s6p1d contracted to 5s3p1d pattern {62111/411/1}
 Group   4 Type Zn  : 17s11p6d contracted to 6s4p3d pattern {842111/6311/411}

Atom   0C    basis set group =>   1
Atom   1H    basis set group =>   2
Atom   2C    basis set group =>   1
Atom   3C    basis set group =>   1
Atom   4H    basis set group =>   2
Atom   5C    basis set group =>   1
Atom   6C    basis set group =>   1
Atom   7H    basis set group =>   2
Atom   8C    basis set group =>   1
Atom   9H    basis set group =>   2
Atom  10C    basis set group =>   1
Atom  11H    basis set group =>   2
Atom  12N    basis set group =>   3
Atom  13N    basis set group =>   3
Atom  14Zn   basis set group =>   4
Atom  15C    basis set group =>   1
Atom  16H    basis set group =>   2
Atom  17C    basis set group =>   1
Atom  18C    basis set group =>   1
Atom  19H    basis set group =>   2
Atom  20C    basis set group =>   1
Atom  21C    basis set group =>   1
Atom  22H    basis set group =>   2
Atom  23C    basis set group =>   1
Atom  24H    basis set group =>   2
Atom  25C    basis set group =>   1
Atom  26H    basis set group =>   2
Atom  27N    basis set group =>   3
Atom  28N    basis set group =>   3
Atom  29Zn   basis set group =>   4
Atom  30C    basis set group =>   1
Atom  31H    basis set group =>   2
Atom  32C    basis set group =>   1
Atom  33C    basis set group =>   1
Atom  34H    basis set group =>   2
Atom  35C    basis set group =>   1
Atom  36C    basis set group =>   1
Atom  37H    basis set group =>   2
Atom  38C    basis set group =>   1
Atom  39H    basis set group =>   2
Atom  40C    basis set group =>   1
Atom  41H    basis set group =>   2
Atom  42N    basis set group =>   3
Atom  43N    basis set group =>   3
Atom  44Zn   basis set group =>   4
Atom  45C    basis set group =>   1
Atom  46H    basis set group =>   2
Atom  47C    basis set group =>   1
Atom  48C    basis set group =>   1
Atom  49H    basis set group =>   2
Atom  50C    basis set group =>   1
Atom  51C    basis set group =>   1
Atom  52H    basis set group =>   2
Atom  53C    basis set group =>   1
Atom  54H    basis set group =>   2
Atom  55C    basis set group =>   1
Atom  56H    basis set group =>   2
Atom  57N    basis set group =>   3
Atom  58N    basis set group =>   3
Atom  59Zn   basis set group =>   4
Atom  60C    basis set group =>   1
Atom  61H    basis set group =>   2
Atom  62C    basis set group =>   1
Atom  63C    basis set group =>   1
Atom  64H    basis set group =>   2
Atom  65C    basis set group =>   1
Atom  66C    basis set group =>   1
Atom  67H    basis set group =>   2
Atom  68C    basis set group =>   1
Atom  69H    basis set group =>   2
Atom  70C    basis set group =>   1
Atom  71H    basis set group =>   2
Atom  72N    basis set group =>   3
Atom  73N    basis set group =>   3
Atom  74Zn   basis set group =>   4
Atom  75C    basis set group =>   1
Atom  76H    basis set group =>   2
Atom  77C    basis set group =>   1
Atom  78C    basis set group =>   1
Atom  79H    basis set group =>   2
Atom  80C    basis set group =>   1
Atom  81C    basis set group =>   1
Atom  82H    basis set group =>   2
Atom  83C    basis set group =>   1
Atom  84H    basis set group =>   2
Atom  85C    basis set group =>   1
Atom  86H    basis set group =>   2
Atom  87N    basis set group =>   3
Atom  88N    basis set group =>   3
Atom  89Zn   basis set group =>   4
---------------------------------
AUXILIARY/J BASIS SET INFORMATION
---------------------------------
There are 4 groups of distinct atoms

 Group   1 Type C   : 12s5p4d2f1g contracted to 6s4p3d1f1g pattern {711111/2111/211/2/1}
 Group   2 Type H   : 5s2p1d contracted to 3s1p1d pattern {311/2/1}
 Group   3 Type N   : 12s5p4d2f1g contracted to 6s4p3d1f1g pattern {711111/2111/211/2/1}
 Group   4 Type Zn  : 19s5p5d3f3g contracted to 8s5p5d2f3g pattern {121111111/11111/11111/21/111}

Atom   0C    basis set group =>   1
Atom   1H    basis set group =>   2
Atom   2C    basis set group =>   1
Atom   3C    basis set group =>   1
Atom   4H    basis set group =>   2
Atom   5C    basis set group =>   1
Atom   6C    basis set group =>   1
Atom   7H    basis set group =>   2
Atom   8C    basis set group =>   1
Atom   9H    basis set group =>   2
Atom  10C    basis set group =>   1
Atom  11H    basis set group =>   2
Atom  12N    basis set group =>   3
Atom  13N    basis set group =>   3
Atom  14Zn   basis set group =>   4
Atom  15C    basis set group =>   1
Atom  16H    basis set group =>   2
Atom  17C    basis set group =>   1
Atom  18C    basis set group =>   1
Atom  19H    basis set group =>   2
Atom  20C    basis set group =>   1
Atom  21C    basis set group =>   1
Atom  22H    basis set group =>   2
Atom  23C    basis set group =>   1
Atom  24H    basis set group =>   2
Atom  25C    basis set group =>   1
Atom  26H    basis set group =>   2
Atom  27N    basis set group =>   3
Atom  28N    basis set group =>   3
Atom  29Zn   basis set group =>   4
Atom  30C    basis set group =>   1
Atom  31H    basis set group =>   2
Atom  32C    basis set group =>   1
Atom  33C    basis set group =>   1
Atom  34H    basis set group =>   2
Atom  35C    basis set group =>   1
Atom  36C    basis set group =>   1
Atom  37H    basis set group =>   2
Atom  38C    basis set group =>   1
Atom  39H    basis set group =>   2
Atom  40C    basis set group =>   1
Atom  41H    basis set group =>   2
Atom  42N    basis set group =>   3
Atom  43N    basis set group =>   3
Atom  44Zn   basis set group =>   4
Atom  45C    basis set group =>   1
Atom  46H    basis set group =>   2
Atom  47C    basis set group =>   1
Atom  48C    basis set group =>   1
Atom  49H    basis set group =>   2
Atom  50C    basis set group =>   1
Atom  51C    basis set group =>   1
Atom  52H    basis set group =>   2
Atom  53C    basis set group =>   1
Atom  54H    basis set group =>   2
Atom  55C    basis set group =>   1
Atom  56H    basis set group =>   2
Atom  57N    basis set group =>   3
Atom  58N    basis set group =>   3
Atom  59Zn   basis set group =>   4
Atom  60C    basis set group =>   1
Atom  61H    basis set group =>   2
Atom  62C    basis set group =>   1
Atom  63C    basis set group =>   1
Atom  64H    basis set group =>   2
Atom  65C    basis set group =>   1
Atom  66C    basis set group =>   1
Atom  67H    basis set group =>   2
Atom  68C    basis set group =>   1
Atom  69H    basis set group =>   2
Atom  70C    basis set group =>   1
Atom  71H    basis set group =>   2
Atom  72N    basis set group =>   3
Atom  73N    basis set group =>   3
Atom  74Zn   basis set group =>   4
Atom  75C    basis set group =>   1
Atom  76H    basis set group =>   2
Atom  77C    basis set group =>   1
Atom  78C    basis set group =>   1
Atom  79H    basis set group =>   2
Atom  80C    basis set group =>   1
Atom  81C    basis set group =>   1
Atom  82H    basis set group =>   2
Atom  83C    basis set group =>   1
Atom  84H    basis set group =>   2
Atom  85C    basis set group =>   1
Atom  86H    basis set group =>   2
Atom  87N    basis set group =>   3
Atom  88N    basis set group =>   3
Atom  89Zn   basis set group =>   4
------------------------------------------------------------------------------
                           ORCA GTO INTEGRAL CALCULATION
                           -- RI-GTO INTEGRALS CHOSEN --
------------------------------------------------------------------------------
------------------------------------------------------------------------------
                   ___                                                        
                  /   \      - P O W E R E D   B Y -                         
                 /     \                                                     
                 |  |  |   _    _      __       _____    __    __             
                 |  |  |  | |  | |    /  \     |  _  \  |  |  /  |          
                  \  \/   | |  | |   /    \    | | | |  |  | /  /          
                 / \  \   | |__| |  /  /\  \   | |_| |  |  |/  /          
                |  |  |   |  __  | /  /__\  \  |    /   |      \           
                |  |  |   | |  | | |   __   |  |    \   |  |\   \          
                \     /   | |  | | |  |  |  |  | |\  \  |  | \   \       
                 \___/    |_|  |_| |__|  |__|  |_| \__\ |__|  \__/        
                                                                              
                      - O R C A' S   B I G   F R I E N D -                    
                                      &                                       
                       - I N T E G R A L  F E E D E R -                       
                                                                              
 v1 FN, 2020, v2 2021                                                         
------------------------------------------------------------------------------


Reading SHARK input file zif7_lpA.SHARKINP.tmp ... ok
----------------------
SHARK INTEGRAL PACKAGE
----------------------

Number of atoms                             ...     90
Number of basis functions                   ...   1404
Number of shells                            ...    684
Maximum angular momentum                    ...      2
Integral batch strategy                     ... SHARK/LIBINT Hybrid
RI-J (if used) integral strategy            ... SPLIT-RIJ (Revised 2003 algorithm where possible)
Printlevel                                  ...      1
Contraction scheme used                     ... SEGMENTED contraction
Coulomb Range Separation                    ... NOT USED
Exchange Range Separation                   ... NOT USED
Finite Nucleus Model                        ... NOT USED
Auxiliary Coulomb fitting basis             ... AVAILABLE
   # of basis functions in Aux-J            ...   3510
   # of shells in Aux-J                     ...   1098
   Maximum angular momentum in Aux-J        ...      4
Auxiliary J/K fitting basis                 ... NOT available
Auxiliary Correlation fitting basis         ... NOT available
Auxiliary 'external' fitting basis          ... NOT available
Integral threshold                          ...     1.000000e-10
Primitive cut-off                           ...     1.000000e-11
Primitive pair pre-selection threshold      ...     1.000000e-11

Calculating pre-screening integrals         ... done (  2.2 sec) Dimension = 684
Organizing shell pair data                  ... done (  0.9 sec)
Shell pair information
Total number of shell pairs                 ...    234270
Shell pairs after pre-screening             ...     99486
Total number of primitive shell pairs       ...    921678
Primitive shell pairs kept                  ...    208012
          la=0 lb=0:  32823 shell pairs
          la=1 lb=0:  39453 shell pairs
          la=1 lb=1:  12022 shell pairs
          la=2 lb=0:   9044 shell pairs
          la=2 lb=1:   5555 shell pairs
          la=2 lb=2:    589 shell pairs

Calculating one electron integrals          ... done (  1.9 sec)
Calculating RI/J V-Matrix + Cholesky decomp.... done (  2.3 sec)
Calculating Nuclear repulsion               ... done (  0.0 sec) ENN=  12962.314891477658 Eh

SHARK setup successfully completed in  10.7 seconds

Maximum memory used throughout the entire GTOINT-calculation: 530.3 MB
-------------------------------------------------------------------------------
                                 ORCA SCF
-------------------------------------------------------------------------------

------------
SCF SETTINGS
------------
Hamiltonian:
 Density Functional     Method          .... DFT(GTOs)
 Exchange Functional    Exchange        .... B88
   X-Alpha parameter    XAlpha          ....  0.666667
   Becke's b parameter  XBeta           ....  0.004200
 Correlation Functional Correlation     .... LYP
 LDA part of GGA corr.  LDAOpt          .... VWN-5
 Gradients option       PostSCFGGA      .... off
 Hybrid DFT is turned on
   Fraction HF Exchange ScalHFX         ....  0.200000
   Scaling of DF-GGA-X  ScalDFX         ....  0.720000
   Scaling of DF-GGA-C  ScalDFC         ....  0.810000
   Scaling of DF-LDA-C  ScalLDAC        ....  1.000000
   Perturbative correction              ....  0.000000
   Density functional embedding theory  .... OFF
   NL short-range parameter             ....  4.800000
 RI-approximation to the Coulomb term is turned on
   Number of AuxJ basis functions       .... 3510
   RIJ-COSX (HFX calculated with COS-X)).... on


General Settings:
 Integral files         IntName         .... zif7_lpA
 Hartree-Fock type      HFTyp           .... RHF
 Total Charge           Charge          ....    0
 Multiplicity           Mult            ....    1
 Number of Electrons    NEL             ....  546
 Basis Dimension        Dim             .... 1404
 Nuclear Repulsion      ENuc            ....  12962.3148914777 Eh

Convergence Acceleration:
 DIIS                   CNVDIIS         .... on
   Start iteration      DIISMaxIt       ....    12
   Startup error        DIISStart       ....  0.200000
   # of expansion vecs  DIISMaxEq       ....     5
   Bias factor          DIISBfac        ....   1.050
   Max. coefficient     DIISMaxC        ....  10.000
 Trust-Rad. Augm. Hess. CNVTRAH         .... auto
   Auto Start mean grad. ratio tolernc. ....  1.125000
   Auto Start start iteration           ....    20
   Auto Start num. interpolation iter.  ....    10
   Max. Number of Micro iterations      ....    16
   Max. Number of Macro iterations      .... Maxiter - #DIIS iter
   Number of Davidson start vectors     ....     2
   Converg. threshold I  (grad. norm)   ....   5.000e-05
   Converg. threshold II (energy diff.) ....   1.000e-06
   Grad. Scal. Fac. for Micro threshold ....   0.100
   Minimum threshold for Micro iter.    ....   0.010
   NR start threshold (gradient norm)   ....   0.001
   Initial trust radius                 ....   0.400
   Minimum AH scaling param. (alpha)    ....   1.000
   Maximum AH scaling param. (alpha)    .... 1000.000
   Orbital update algorithm             .... Taylor
   White noise on init. David. guess    .... on
   Maximum white noise                  ....   0.010
   Quad. conv. algorithm                .... NR
 SOSCF                  CNVSOSCF        .... off
 Level Shifting         CNVShift        .... on
   Level shift para.    LevelShift      ....    0.2500
   Turn off err/grad.   ShiftErr        ....    0.0010
 Zerner damping         CNVZerner       .... off
 Static damping         CNVDamp         .... on
   Fraction old density DampFac         ....    0.7000
   Max. Damping (<1)    DampMax         ....    0.9800
   Min. Damping (>=0)   DampMin         ....    0.0000
   Turn off err/grad.   DampErr         ....    0.1000
 Fernandez-Rico         CNVRico         .... off

SCF Procedure:
 Maximum # iterations   MaxIter         ....   125
 SCF integral mode      SCFMode         .... Direct
   Integral package                     .... SHARK and LIBINT hybrid scheme
 Reset frequency        DirectResetFreq ....    20
 Integral Threshold     Thresh          ....  1.000e-10 Eh
 Primitive CutOff       TCut            ....  1.000e-11 Eh

Convergence Tolerance:
 Convergence Check Mode ConvCheckMode   .... Total+1el-Energy
 Convergence forced     ConvForced      .... 0
 Energy Change          TolE            ....  1.000e-06 Eh
 1-El. energy change                    ....  1.000e-03 Eh
 DIIS Error             TolErr          ....  1.000e-06


Diagonalization of the overlap matrix:
Smallest eigenvalue                        ... 1.492e-05
Time for diagonalization                   ...    1.608 sec
Threshold for overlap eigenvalues          ... 1.000e-08
Number of eigenvalues below threshold      ... 0
Time for construction of square roots      ...    1.020 sec
Total time needed                          ...    2.637 sec

Time for model grid setup =   19.252 sec

------------------------------
INITIAL GUESS: MODEL POTENTIAL
------------------------------
Loading Hartree-Fock densities                     ... done
Calculating cut-offs                               ... done
Initializing the effective Hamiltonian             ... done
Setting up the integral package (SHARK)            ... done
Starting the Coulomb interaction                   ... done (  35.5 sec)
Reading the grid                                   ... done
Mapping shells                                     ... done
Starting the XC term evaluation                    ... done (   7.6 sec)
  promolecular density results
     # of electrons  =    545.988999013
     EX              =   -723.384459499
     EC              =    -21.231068633
     EX+EC           =   -744.615528133
Transforming the Hamiltonian                       ... done (   1.0 sec)
Diagonalizing the Hamiltonian                      ... done (   1.6 sec)
Back transforming the eigenvectors                 ... done (   0.5 sec)
Now organizing SCF variables                       ... done
                      ------------------
                      INITIAL GUESS DONE (  65.6 sec)
                      ------------------
-------------------
DFT GRID GENERATION
-------------------

General Integration Accuracy     IntAcc      ... 4.388
Radial Grid Type                 RadialGrid  ... OptM3 with GC (2021)
Angular Grid (max. ang.)         AngularGrid ... 4 (Lebedev-302)
Angular grid pruning method      GridPruning ... 4 (adaptive)
Weight generation scheme         WeightScheme... Becke
Basis function cutoff            BFCut       ... 1.0000e-10
Integration weight cutoff        WCut        ... 1.0000e-14
Angular grids for H and He will be reduced by one unit
Partially contracted basis set               ... off
Rotationally invariant grid construction     ... off

Total number of grid points                  ...   482559
Total number of batches                      ...     7582
Average number of points per batch           ...       63
Average number of grid points per atom       ...     5362
Time for grid setup =   53.705 sec

--------------------
COSX GRID GENERATION
--------------------

GRIDX 1
-------
General Integration Accuracy     IntAcc      ... 3.816
Radial Grid Type                 RadialGrid  ... OptM3 with GC (2021)
Angular Grid (max. ang.)         AngularGrid ... 1 (Lebedev-50)
Angular grid pruning method      GridPruning ... 4 (adaptive)
Weight generation scheme         WeightScheme... Becke
Basis function cutoff            BFCut       ... 1.0000e-10
Integration weight cutoff        WCut        ... 1.0000e-14
Angular grids for H and He will be reduced by one unit
Partially contracted basis set               ... on
Rotationally invariant grid construction     ... off

Total number of grid points                  ...    59699
Total number of batches                      ...      969
Average number of points per batch           ...       61
Average number of grid points per atom       ...      663
UseSFitting                                  ... on

GRIDX 2
-------
General Integration Accuracy     IntAcc      ... 4.020
Radial Grid Type                 RadialGrid  ... OptM3 with GC (2021)
Angular Grid (max. ang.)         AngularGrid ... 2 (Lebedev-110)
Angular grid pruning method      GridPruning ... 4 (adaptive)
Weight generation scheme         WeightScheme... Becke
Basis function cutoff            BFCut       ... 1.0000e-10
Integration weight cutoff        WCut        ... 1.0000e-14
Angular grids for H and He will be reduced by one unit
Partially contracted basis set               ... on
Rotationally invariant grid construction     ... off

Total number of grid points                  ...   130145
Total number of batches                      ...     2082
Average number of points per batch           ...       62
Average number of grid points per atom       ...     1446
UseSFitting                                  ... on

GRIDX 3
-------
General Integration Accuracy     IntAcc      ... 4.338
Radial Grid Type                 RadialGrid  ... OptM3 with GC (2021)
Angular Grid (max. ang.)         AngularGrid ... 3 (Lebedev-194)
Angular grid pruning method      GridPruning ... 4 (adaptive)
Weight generation scheme         WeightScheme... Becke
Basis function cutoff            BFCut       ... 1.0000e-10
Integration weight cutoff        WCut        ... 1.0000e-14
Angular grids for H and He will be reduced by one unit
Partially contracted basis set               ... on
Rotationally invariant grid construction     ... off

Total number of grid points                  ...   284366
Total number of batches                      ...     4490
Average number of points per batch           ...       63
Average number of grid points per atom       ...     3160
UseSFitting                                  ... on

Time for X-Grid setup             =   76.611 sec

--------------
SCF ITERATIONS
--------------
ITER       Energy         Delta-E        Max-DP      RMS-DP      [F,P]     Damp
               ***  Starting incremental Fock matrix formation  ***
  0 -12947.0367150200   0.000000000000 0.63675662  0.00416206  0.3357120 0.7000
  1 -12948.8774766943  -1.840761674297 0.39529276  0.00277930  0.0980023 0.7000
                               ***Turning on DIIS***
  2 -12949.1579702447  -0.280493550412 0.98783632  0.00665981  0.0540179 0.0000
  3 -12950.1530976816  -0.995127436929 0.35156439  0.00266006  0.0909656 0.0000
  4 -12950.5400690531  -0.386971371498 0.24852617  0.00193108  0.0477746 0.0000
  5 -12950.7065995446  -0.166530491506 0.26995914  0.00178232  0.0380002 0.0000
  6 -12950.7778926472  -0.071293102625 0.21240868  0.00120486  0.0306325 0.0000
  7 -12950.8031503136  -0.025257666355 0.12523527  0.00070002  0.0194036 0.0000
  8 -12950.8126729115  -0.009522597855 0.08099129  0.00044605  0.0051658 0.0000
  9 -12950.8166326082  -0.003959696704 0.04697596  0.00028628  0.0039558 0.0000
 10 -12950.8187188951  -0.002086286897 0.02912795  0.00018219  0.0036861 0.0000
 11 -12950.8196232246  -0.000904329574 0.02012957  0.00012620  0.0037188 0.0000
 12 -12950.8202690419  -0.000645817307 0.01560770  0.00010722  0.0019127 0.0000
 13 -12950.8206543776  -0.000385335694 0.01331237  0.00009069  0.0029284 0.0000
 14 -12950.8208872426  -0.000232864963 0.00959795  0.00007068  0.0018132 0.0000
 15 -12950.8210452023  -0.000157959739 0.09667960  0.00077345  0.0008938 0.0000
               *** Restarting incremental Fock matrix formation ***
                                   *** Resetting DIIS ***
 16 -12950.8198640984   0.001181103949 0.03561614  0.00032718  0.0049361 0.0000
 17 -12950.8205086150  -0.000644516664 0.02366588  0.00016288  0.0095636 0.0000
 18 -12950.8210807672  -0.000572152179 0.01392916  0.00009931  0.0032821 0.0000
 19 -12950.8213519644  -0.000271197134 0.00841436  0.00006043  0.0030942 0.0000

 WARNING: the maximum gradient error descreased on average only by a factor   1.0
          during the last 20 iterations

                      *** Initiating the TRAH-SCF procedure ***


TRAH GRIDX
----------

General Integration Accuracy     IntAcc      ... 3.067
Radial Grid Type                 RadialGrid  ... OptM3 with GC (2021)
Angular Grid (max. ang.)         AngularGrid ... 1 (Lebedev-50)
Angular grid pruning method      GridPruning ... 4 (adaptive)
Weight generation scheme         WeightScheme... Becke
Basis function cutoff            BFCut       ... 1.0000e-10
Integration weight cutoff        WCut        ... 1.0000e-14
Angular grids for H and He will be reduced by one unit
Partially contracted basis set               ... on
Rotationally invariant grid construction     ... off

Total number of grid points                  ...    33059
Total number of batches                      ...      570
Average number of points per batch           ...       57
Average number of grid points per atom       ...      367


TRAH GRID
---------

General Integration Accuracy     IntAcc      ... 3.467
Radial Grid Type                 RadialGrid  ... OptM3 with GC (2021)
Angular Grid (max. ang.)         AngularGrid ... 1 (Lebedev-50)
Angular grid pruning method      GridPruning ... 4 (adaptive)
Weight generation scheme         WeightScheme... Becke
Basis function cutoff            BFCut       ... 1.0000e-10
Integration weight cutoff        WCut        ... 1.0000e-14
Angular grids for H and He will be reduced by one unit
Partially contracted basis set               ... off
Rotationally invariant grid construction     ... off

Total number of grid points                  ...    86041
Total number of batches                      ...     1383
Average number of points per batch           ...       62
Average number of grid points per atom       ...      956

 --------------------------------------------------------------------------------------------
   Iter.        energy            ||Error||_2        Shift      TRadius  Mac/Mic        Rej.
 --------------------------------------------------------------------------------------------
    0     -12950.821507658373     3.321334e-02                     0.400 (TRAH MAcro)   No
WARNING : small    HOMO - LUMO gap : 0.018398
    0     dE    -8.055579e-05     5.744049e-02    -1.6111e-04      0.005 (TRAH MIcro)
    0     dE    -1.532349e-04     2.308016e-02    -3.0639e-04      0.016 (TRAH MIcro)
    0     dE    -2.206196e-04     1.437298e-02    -4.4071e-04      0.035 (TRAH MIcro)
    0     dE    -3.901221e-04     3.523475e-02    -7.7117e-04      0.108 (TRAH MIcro)
    0     dE    -4.398532e-04     3.370304e-02    -8.6463e-04      0.132 (TRAH MIcro)
    0     dE    -4.850336e-04     2.047050e-02    -9.4578e-04      0.160 (TRAH MIcro)
    0     dE    -4.956400e-04     1.775099e-02    -9.6427e-04      0.167 (TRAH MIcro)
    0     dE    -5.165974e-04     5.719569e-03    -9.9971e-04      0.183 (TRAH MIcro)
    0     dE    -5.180112e-04     3.812852e-03    -1.0020e-03      0.184 (TRAH MIcro)
    0     dE    -5.190029e-04     1.628137e-03    -1.0037e-03      0.185 (TRAH MIcro)
    1     -12950.822029236251     4.493222e-03                     0.480 (TRAH MAcro)   No
WARNING : small    HOMO - LUMO gap : 0.019730
    1     dE    -1.141666e-06     1.365895e-02    -2.2833e-06      0.001 (TRAH MIcro)
    1     dE    -6.854102e-06     3.791790e-03    -1.3708e-05      0.004 (TRAH MIcro)
    1     dE    -8.772054e-06     3.693208e-03    -1.7543e-05      0.006 (TRAH MIcro)
    1     dE    -9.994575e-06     2.854561e-03    -1.9988e-05      0.008 (TRAH MIcro)
    1     dE    -1.055281e-05     1.906513e-03    -2.1104e-05      0.009 (TRAH MIcro)
    1     dE    -1.106325e-05     1.504908e-03    -2.2124e-05      0.011 (TRAH MIcro)
    1     dE    -1.182887e-05     2.066383e-03    -2.3652e-05      0.016 (TRAH MIcro)
    1     dE    -1.199225e-05     1.695369e-03    -2.3977e-05      0.018 (TRAH MIcro)
    1     dE    -1.212760e-05     1.244758e-03    -2.4247e-05      0.019 (TRAH MIcro)
    1     dE    -1.218287e-05     3.288276e-04    -2.4357e-05      0.019 (TRAH MIcro)
    2     -12950.822041147916     3.867031e-04                           (NR   MAcro)
    2     dE    -1.466030e-08     2.952549e-04                           (NR   MIcro)
    2     dE    -2.224033e-08     1.589729e-04                           (NR   MIcro)
    2     dE    -2.395269e-08     1.410486e-04                           (NR   MIcro)
    2     dE    -2.575013e-08     9.482745e-05                           (NR   MIcro)
    2     dE    -2.653655e-08     8.387456e-05                           (NR   MIcro)
    2     dE    -2.715863e-08     4.524343e-05                           (NR   MIcro)
    2     dE    -2.728462e-08     3.585272e-05                           (NR   MIcro)
    2     dE    -2.756842e-08     4.581536e-05                           (NR   MIcro)
    2     dE    -2.775053e-08     3.317000e-05                           (NR   MIcro)
    2     dE    -2.779485e-08     1.888150e-05                           (NR   MIcro)
    2     dE    -2.781811e-08     1.214871e-05                           (NR   MIcro)
    2     dE    -2.782839e-08     5.116917e-06                           (NR   MIcro)
    2     dE    -2.783011e-08     2.506220e-06                           (NR   MIcro)
    3     -12950.822041174501     2.559665e-06                           (NR   MAcro)

               *****************************************************
               *                     SUCCESS                       *
               *           SCF CONVERGED AFTER  57 CYCLES          *
               *****************************************************

Old exchange energy                            =   -145.005905484 Eh
New exchange energy                            =   -145.005898268 Eh
Exchange energy change after final integration =      0.000007217 Eh
Total energy after final integration           = -12950.822033958 Eh
Final COS-X integration done in                =  1345.504 sec

----------------
TOTAL SCF ENERGY
----------------

Total Energy       :       -12950.82203396 Eh         -352409.78371 eV

Components:
Nuclear Repulsion  :        12962.31489148 Eh          352722.52026 eV
Electronic Energy  :       -25913.13692544 Eh         -705132.30397 eV
One Electron Energy:       -43841.03084379 Eh        -1192975.09894 eV
Two Electron Energy:        17927.89391835 Eh          487842.79497 eV
Max COSX asymmetry :            0.00000237 Eh               0.00006 eV

Virial components:
Potential Energy   :       -25877.46666249 Eh         -704161.66677 eV
Kinetic Energy     :        12926.64462853 Eh          351751.88306 eV
Virial Ratio       :            2.00187035


DFT components:
N(Alpha)           :      272.999848331942 electrons
N(Beta)            :      272.999848331942 electrons
N(Total)           :      545.999696663883 electrons
E(X)               :     -577.984978875925 Eh       
E(C)               :      -24.841111197061 Eh       
E(XC)              :     -602.826090072985 Eh       
DFET-embed. en.    :        0.000000000000 Eh       

---------------
SCF CONVERGENCE
---------------

  Last Energy change         ...   -2.6585e-08  Tolerance :   1.0000e-06
  Last Orbital Gradient      ...    2.5597e-06  Tolerance :   5.0000e-05
  Last Orbital Rotation      ...    7.3261e-04

             **** THE GBW FILE WAS UPDATED (zif7_lpA.gbw) ****
             **** DENSITY zif7_lpA.scfp WAS UPDATED ****
             **** ENERGY FILE WAS UPDATED (zif7_lpA.en.tmp) ****
             **** THE GBW FILE WAS UPDATED (zif7_lpA.gbw) ****
             **** DENSITY zif7_lpA.scfp WAS UPDATED ****
----------------
ORBITAL ENERGIES
----------------

  NO   OCC          E(Eh)            E(eV) 
   0   2.0000    -347.266151     -9449.5924 
   1   2.0000    -347.262997     -9449.5065 
   2   2.0000    -347.260926     -9449.4502 
   3   2.0000    -347.260326     -9449.4339 
   4   2.0000    -347.257681     -9449.3619 
   5   2.0000    -347.256978     -9449.3428 
   6   2.0000     -42.208096     -1148.5407 
   7   2.0000     -42.205186     -1148.4615 
   8   2.0000     -42.203185     -1148.4070 
   9   2.0000     -42.202493     -1148.3882 
  10   2.0000     -42.199998     -1148.3203 
  11   2.0000     -42.199307     -1148.3015 
  12   2.0000     -37.189102     -1011.9669 
  13   2.0000     -37.186661     -1011.9005 
  14   2.0000     -37.186254     -1011.8894 
  15   2.0000     -37.184917     -1011.8530 
  16   2.0000     -37.184319     -1011.8368 
  17   2.0000     -37.183599     -1011.8172 
  18   2.0000     -37.183575     -1011.8165 
  19   2.0000     -37.182072     -1011.7756 
  20   2.0000     -37.181457     -1011.7589 
  21   2.0000     -37.181118     -1011.7497 
  22   2.0000     -37.180791     -1011.7408 
  23   2.0000     -37.180425     -1011.7308 
  24   2.0000     -37.180104     -1011.7221 
  25   2.0000     -37.179430     -1011.7037 
  26   2.0000     -37.178179     -1011.6697 
  27   2.0000     -37.177463     -1011.6502 
  28   2.0000     -37.176997     -1011.6375 
  29   2.0000     -37.176327     -1011.6193 
  30   2.0000     -14.353487      -390.5782 
  31   2.0000     -14.353296      -390.5730 
  32   2.0000     -14.352872      -390.5615 
  33   2.0000     -14.351955      -390.5365 
  34   2.0000     -14.351701      -390.5296 
  35   2.0000     -14.351293      -390.5185 
  36   2.0000     -14.350806      -390.5053 
  37   2.0000     -14.350633      -390.5006 
  38   2.0000     -14.349714      -390.4756 
  39   2.0000     -14.349192      -390.4614 
  40   2.0000     -14.348756      -390.4495 
  41   2.0000     -14.347967      -390.4280 
  42   2.0000     -10.259113      -279.1647 
  43   2.0000     -10.258821      -279.1567 
  44   2.0000     -10.258524      -279.1486 
  45   2.0000     -10.257856      -279.1305 
  46   2.0000     -10.257059      -279.1088 
  47   2.0000     -10.256205      -279.0855 
  48   2.0000     -10.218790      -278.0674 
  49   2.0000     -10.218269      -278.0532 
  50   2.0000     -10.217798      -278.0404 
  51   2.0000     -10.217586      -278.0346 
  52   2.0000     -10.216937      -278.0170 
  53   2.0000     -10.216661      -278.0095 
  54   2.0000     -10.215754      -277.9848 
  55   2.0000     -10.215528      -277.9786 
  56   2.0000     -10.214473      -277.9499 
  57   2.0000     -10.214248      -277.9438 
  58   2.0000     -10.214243      -277.9437 
  59   2.0000     -10.213248      -277.9166 
  60   2.0000     -10.191862      -277.3347 
  61   2.0000     -10.190786      -277.3054 
  62   2.0000     -10.190514      -277.2980 
  63   2.0000     -10.190219      -277.2899 
  64   2.0000     -10.190201      -277.2895 
  65   2.0000     -10.189709      -277.2761 
  66   2.0000     -10.189523      -277.2710 
  67   2.0000     -10.188821      -277.2519 
  68   2.0000     -10.188311      -277.2380 
  69   2.0000     -10.187484      -277.2155 
  70   2.0000     -10.187178      -277.2072 
  71   2.0000     -10.186872      -277.1989 
  72   2.0000     -10.185448      -277.1601 
  73   2.0000     -10.184786      -277.1421 
  74   2.0000     -10.184272      -277.1281 
  75   2.0000     -10.184195      -277.1260 
  76   2.0000     -10.184075      -277.1228 
  77   2.0000     -10.183686      -277.1122 
  78   2.0000     -10.183549      -277.1085 
  79   2.0000     -10.183142      -277.0974 
  80   2.0000     -10.182214      -277.0721 
  81   2.0000     -10.181879      -277.0630 
  82   2.0000     -10.181550      -277.0541 
  83   2.0000     -10.179712      -277.0040 
  84   2.0000      -4.824849      -131.2908 
  85   2.0000      -4.822100      -131.2160 
  86   2.0000      -4.820119      -131.1621 
  87   2.0000      -4.819405      -131.1427 
  88   2.0000      -4.816947      -131.0758 
  89   2.0000      -4.816258      -131.0570 
  90   2.0000      -3.219480       -87.6065 
  91   2.0000      -3.216772       -87.5328 
  92   2.0000      -3.214922       -87.4825 
  93   2.0000      -3.214524       -87.4716 
  94   2.0000      -3.214169       -87.4620 
  95   2.0000      -3.212803       -87.4248 
  96   2.0000      -3.211696       -87.3947 
  97   2.0000      -3.211588       -87.3917 
  98   2.0000      -3.211010       -87.3760 
  99   2.0000      -3.210244       -87.3552 
 100   2.0000      -3.209414       -87.3326 
 101   2.0000      -3.208751       -87.3146 
 102   2.0000      -3.208322       -87.3029 
 103   2.0000      -3.207594       -87.2831 
 104   2.0000      -3.206145       -87.2436 
 105   2.0000      -3.205428       -87.2241 
 106   2.0000      -3.205284       -87.2202 
 107   2.0000      -3.204623       -87.2022 
 108   2.0000      -1.024584       -27.8804 
 109   2.0000      -1.023993       -27.8643 
 110   2.0000      -1.022560       -27.8253 
 111   2.0000      -1.019880       -27.7523 
 112   2.0000      -1.019778       -27.7496 
 113   2.0000      -1.019008       -27.7286 
 114   2.0000      -0.886702       -24.1284 
 115   2.0000      -0.885020       -24.0826 
 116   2.0000      -0.883599       -24.0439 
 117   2.0000      -0.883158       -24.0320 
 118   2.0000      -0.881967       -23.9995 
 119   2.0000      -0.881148       -23.9773 
 120   2.0000      -0.861878       -23.4529 
 121   2.0000      -0.861473       -23.4419 
 122   2.0000      -0.860462       -23.4144 
 123   2.0000      -0.860382       -23.4122 
 124   2.0000      -0.860034       -23.4027 
 125   2.0000      -0.859726       -23.3943 
 126   2.0000      -0.759511       -20.6674 
 127   2.0000      -0.759245       -20.6601 
 128   2.0000      -0.758524       -20.6405 
 129   2.0000      -0.758339       -20.6355 
 130   2.0000      -0.757979       -20.6257 
 131   2.0000      -0.757643       -20.6165 
 132   2.0000      -0.750600       -20.4249 
 133   2.0000      -0.750053       -20.4100 
 134   2.0000      -0.749641       -20.3988 
 135   2.0000      -0.749428       -20.3930 
 136   2.0000      -0.749119       -20.3846 
 137   2.0000      -0.748341       -20.3634 
 138   2.0000      -0.644815       -17.5463 
 139   2.0000      -0.644404       -17.5351 
 140   2.0000      -0.643166       -17.5014 
 141   2.0000      -0.642671       -17.4880 
 142   2.0000      -0.642155       -17.4739 
 143   2.0000      -0.641860       -17.4659 
 144   2.0000      -0.616667       -16.7804 
 145   2.0000      -0.615934       -16.7604 
 146   2.0000      -0.614634       -16.7250 
 147   2.0000      -0.614404       -16.7188 
 148   2.0000      -0.614001       -16.7078 
 149   2.0000      -0.613953       -16.7065 
 150   2.0000      -0.608218       -16.5505 
 151   2.0000      -0.607042       -16.5184 
 152   2.0000      -0.606708       -16.5094 
 153   2.0000      -0.605445       -16.4750 
 154   2.0000      -0.604764       -16.4565 
 155   2.0000      -0.604058       -16.4372 
 156   2.0000      -0.540045       -14.6954 
 157   2.0000      -0.539809       -14.6890 
 158   2.0000      -0.539320       -14.6757 
 159   2.0000      -0.538525       -14.6540 
 160   2.0000      -0.538221       -14.6457 
 161   2.0000      -0.537736       -14.6325 
 162   2.0000      -0.517032       -14.0691 
 163   2.0000      -0.515046       -14.0151 
 164   2.0000      -0.514337       -13.9958 
 165   2.0000      -0.513202       -13.9649 
 166   2.0000      -0.511892       -13.9293 
 167   2.0000      -0.511121       -13.9083 
 168   2.0000      -0.503367       -13.6973 
 169   2.0000      -0.503180       -13.6922 
 170   2.0000      -0.502756       -13.6807 
 171   2.0000      -0.502637       -13.6774 
 172   2.0000      -0.500860       -13.6291 
 173   2.0000      -0.500025       -13.6064 
 174   2.0000      -0.499794       -13.6001 
 175   2.0000      -0.499169       -13.5831 
 176   2.0000      -0.498542       -13.5660 
 177   2.0000      -0.497919       -13.5491 
 178   2.0000      -0.497503       -13.5377 
 179   2.0000      -0.496743       -13.5171 
 180   2.0000      -0.496098       -13.4995 
 181   2.0000      -0.495727       -13.4894 
 182   2.0000      -0.494476       -13.4554 
 183   2.0000      -0.493199       -13.4206 
 184   2.0000      -0.492532       -13.4025 
 185   2.0000      -0.492201       -13.3935 
 186   2.0000      -0.492069       -13.3899 
 187   2.0000      -0.491274       -13.3682 
 188   2.0000      -0.490478       -13.3466 
 189   2.0000      -0.489876       -13.3302 
 190   2.0000      -0.489752       -13.3268 
 191   2.0000      -0.489297       -13.3144 
 192   2.0000      -0.488139       -13.2829 
 193   2.0000      -0.487472       -13.2648 
 194   2.0000      -0.487084       -13.2542 
 195   2.0000      -0.486458       -13.2372 
 196   2.0000      -0.484337       -13.1795 
 197   2.0000      -0.483756       -13.1637 
 198   2.0000      -0.482908       -13.1406 
 199   2.0000      -0.481425       -13.1002 
 200   2.0000      -0.481011       -13.0890 
 201   2.0000      -0.478813       -13.0292 
 202   2.0000      -0.476584       -12.9685 
 203   2.0000      -0.475862       -12.9489 
 204   2.0000      -0.458113       -12.4659 
 205   2.0000      -0.457603       -12.4520 
 206   2.0000      -0.456456       -12.4208 
 207   2.0000      -0.456259       -12.4154 
 208   2.0000      -0.455373       -12.3913 
 209   2.0000      -0.454757       -12.3746 
 210   2.0000      -0.451181       -12.2773 
 211   2.0000      -0.450729       -12.2650 
 212   2.0000      -0.449732       -12.2378 
 213   2.0000      -0.449190       -12.2231 
 214   2.0000      -0.448995       -12.2178 
 215   2.0000      -0.448755       -12.2112 
 216   2.0000      -0.433967       -11.8088 
 217   2.0000      -0.432998       -11.7825 
 218   2.0000      -0.432173       -11.7600 
 219   2.0000      -0.431737       -11.7482 
 220   2.0000      -0.430830       -11.7235 
 221   2.0000      -0.430081       -11.7031 
 222   2.0000      -0.405243       -11.0272 
 223   2.0000      -0.404891       -11.0176 
 224   2.0000      -0.403613       -10.9829 
 225   2.0000      -0.402912       -10.9638 
 226   2.0000      -0.401935       -10.9372 
 227   2.0000      -0.397288       -10.8108 
 228   2.0000      -0.395071       -10.7504 
 229   2.0000      -0.385999       -10.5036 
 230   2.0000      -0.382980       -10.4214 
 231   2.0000      -0.382276       -10.4023 
 232   2.0000      -0.381346       -10.3770 
 233   2.0000      -0.380949       -10.3662 
 234   2.0000      -0.380352       -10.3499 
 235   2.0000      -0.379515       -10.3271 
 236   2.0000      -0.379243       -10.3197 
 237   2.0000      -0.365874        -9.9559 
 238   2.0000      -0.365004        -9.9323 
 239   2.0000      -0.360466        -9.8088 
 240   2.0000      -0.357852        -9.7376 
 241   2.0000      -0.357185        -9.7195 
 242   2.0000      -0.356890        -9.7115 
 243   2.0000      -0.355272        -9.6674 
 244   2.0000      -0.354420        -9.6442 
 245   2.0000      -0.353616        -9.6224 
 246   2.0000      -0.342531        -9.3207 
 247   2.0000      -0.341968        -9.3054 
 248   2.0000      -0.339387        -9.2352 
 249   2.0000      -0.338014        -9.1978 
 250   2.0000      -0.337386        -9.1807 
 251   2.0000      -0.335775        -9.1369 
 252   2.0000      -0.327847        -8.9212 
 253   2.0000      -0.325248        -8.8504 
[...]
      px      :     1.042545
      py      :     1.043609
      dz2     :     0.018729  d :     0.079554
      dxz     :     0.014180
      dyz     :     0.020966
      dx2y2   :     0.013396
      dxy     :     0.012283
 67 H s       :     0.865188  s :     0.865188
      pz      :     0.010632  p :     0.059969
      px      :     0.015908
      py      :     0.033429
 68 C s       :     2.868140  s :     2.868140
      pz      :     1.041722  p :     3.136380
      px      :     1.045119
      py      :     1.049539
      dz2     :     0.012283  d :     0.079524
      dxz     :     0.015916
      dyz     :     0.016483
      dx2y2   :     0.016602
      dxy     :     0.018240
 69 H s       :     0.862347  s :     0.862347
      pz      :     0.025269  p :     0.059073
      px      :     0.011766
      py      :     0.022038
 70 C s       :     2.866087  s :     2.866087
      pz      :     1.043442  p :     3.139425
      px      :     1.036897
      py      :     1.059086
      dz2     :     0.012478  d :     0.079632
      dxz     :     0.013597
      dyz     :     0.017212
      dx2y2   :     0.017084
      dxy     :     0.019262
 71 H s       :     0.861724  s :     0.861724
      pz      :     0.020267  p :     0.060746
      px      :     0.013706
      py      :     0.026774
 72 N s       :     3.221883  s :     3.221883
      pz      :     1.235548  p :     3.977730
      px      :     1.386445
      py      :     1.355737
      dz2     :     0.010851  d :     0.048828
      dxz     :     0.011516
      dyz     :     0.010913
      dx2y2   :     0.008033
      dxy     :     0.007515
 73 N s       :     3.216010  s :     3.216010
      pz      :     1.224468  p :     3.979835
      px      :     1.384657
      py      :     1.370710
      dz2     :     0.009709  d :     0.049829
      dxz     :     0.012154
      dyz     :     0.013162
      dx2y2   :     0.007908
      dxy     :     0.006897
 74 Zns       :     6.970898  s :     6.970898
      pz      :     4.040118  p :    12.522238
      px      :     4.258921
      py      :     4.223200
      dz2     :     2.000929  d :    10.018675
      dxz     :     1.999293
      dyz     :     1.999959
      dx2y2   :     2.001391
      dxy     :     2.017104
 75 C s       :     2.863902  s :     2.863902
      pz      :     1.022263  p :     2.963312
      px      :     0.967324
      py      :     0.973725
      dz2     :     0.025070  d :     0.141606
      dxz     :     0.045045
      dyz     :     0.010793
      dx2y2   :     0.029396
      dxy     :     0.031303
 76 H s       :     0.868651  s :     0.868651
      pz      :     0.034521  p :     0.058984
      px      :     0.006657
      py      :     0.017805
 77 C s       :     2.828971  s :     2.828971
      pz      :     0.998180  p :     3.072957
      px      :     1.058601
      py      :     1.016176
      dz2     :     0.034729  d :     0.128594
      dxz     :     0.032761
      dyz     :     0.022930
      dx2y2   :     0.021511
      dxy     :     0.016663
 78 C s       :     2.863310  s :     2.863310
      pz      :     1.057630  p :     3.142500
      px      :     1.064330
      py      :     1.020540
      dz2     :     0.021693  d :     0.079816
      dxz     :     0.024257
      dyz     :     0.013407
      dx2y2   :     0.010958
      dxy     :     0.009501
 79 H s       :     0.863780  s :     0.863780
      pz      :     0.010008  p :     0.060734
      px      :     0.035869
      py      :     0.014857
 80 C s       :     2.831770  s :     2.831770
      pz      :     0.989922  p :     3.069691
      px      :     1.051267
      py      :     1.028501
      dz2     :     0.034970  d :     0.126725
      dxz     :     0.025912
      dyz     :     0.026393
      dx2y2   :     0.017973
      dxy     :     0.021477
 81 C s       :     2.863881  s :     2.863881
      pz      :     1.052033  p :     3.139053
      px      :     1.029551
      py      :     1.057469
      dz2     :     0.016301  d :     0.079960
      dxz     :     0.017897
      dyz     :     0.017260
      dx2y2   :     0.012185
      dxy     :     0.016318
 82 H s       :     0.864264  s :     0.864264
      pz      :     0.011709  p :     0.060266
      px      :     0.022523
      py      :     0.026034
 83 C s       :     2.866318  s :     2.866318
      pz      :     1.050021  p :     3.134509
      px      :     1.080839
      py      :     1.003649
      dz2     :     0.015980  d :     0.080608
      dxz     :     0.026245
      dyz     :     0.009503
      dx2y2   :     0.014935
      dxy     :     0.013945
 84 H s       :     0.863358  s :     0.863358
      pz      :     0.025269  p :     0.058820
      px      :     0.014642
      py      :     0.018910
 85 C s       :     2.868977  s :     2.868977
      pz      :     1.036814  p :     3.132644
      px      :     1.040440
      py      :     1.055389
      dz2     :     0.012736  d :     0.079399
      dxz     :     0.013941
      dyz     :     0.017225
      dx2y2   :     0.018082
      dxy     :     0.017415
 86 H s       :     0.861726  s :     0.861726
      pz      :     0.018845  p :     0.058531
      px      :     0.029415
      py      :     0.010271
 87 N s       :     3.213133  s :     3.213133
      pz      :     1.253703  p :     3.980511
      px      :     1.330030
      py      :     1.396778
      dz2     :     0.012297  d :     0.049957
      dxz     :     0.007238
      dyz     :     0.013651
      dx2y2   :     0.006478
      dxy     :     0.010294
 88 N s       :     3.203410  s :     3.203410
      pz      :     1.251048  p :     3.983236
      px      :     1.397953
      py      :     1.334234
      dz2     :     0.011292  d :     0.051666
      dxz     :     0.015892
      dyz     :     0.007560
      dx2y2   :     0.008781
      dxy     :     0.008141
 89 Zns       :     6.982708  s :     6.982708
      pz      :     4.032221  p :    12.548037
      px      :     4.248546
      py      :     4.267270
      dz2     :     2.001946  d :    10.020889
      dxz     :     1.997201
      dyz     :     1.998942
      dx2y2   :     2.016852
      dxy     :     2.005949


                      *****************************
                      * MAYER POPULATION ANALYSIS *
                      *****************************

  NA   - Mulliken gross atomic population
  ZA   - Total nuclear charge
  QA   - Mulliken gross atomic charge
  VA   - Mayer's total valence
  BVA  - Mayer's bonded valence
  FA   - Mayer's free valence

  ATOM       NA         ZA         QA         VA         BVA        FA
  0 C      6.0252     6.0000    -0.0252     4.0171     4.0171    -0.0000
  1 H      0.8729     1.0000     0.1271     0.9910     0.9910     0.0000
  2 C      5.9632     6.0000     0.0368     3.8965     3.8965     0.0000
  3 C      6.1003     6.0000    -0.1003     3.8472     3.8472     0.0000
  4 H      0.8881     1.0000     0.1119     0.9570     0.9570     0.0000
  5 C      5.9348     6.0000     0.0652     3.8458     3.8458    -0.0000
  6 C      6.1386     6.0000    -0.1386     3.8773     3.8773     0.0000
  7 H      0.9206     1.0000     0.0794     0.9698     0.9698     0.0000
  8 C      6.1411     6.0000    -0.1411     3.9324     3.9324     0.0000
  9 H      0.8949     1.0000     0.1051     0.9704     0.9704    -0.0000
 10 C      6.0766     6.0000    -0.0766     3.8483     3.8483     0.0000
 11 H      0.8696     1.0000     0.1304     0.9589     0.9589    -0.0000
 12 N      7.1638     7.0000    -0.1638     3.0599     3.0599     0.0000
 13 N      7.1693     7.0000    -0.1693     3.0563     3.0563     0.0000
 14 Zn    29.8217    30.0000     0.1783     1.7260     1.7260     0.0000
 15 C      6.0133     6.0000    -0.0133     4.0075     4.0075    -0.0000
 16 H      0.8747     1.0000     0.1253     0.9951     0.9951    -0.0000
 17 C      5.9342     6.0000     0.0658     3.8484     3.8484    -0.0000
 18 C      6.1088     6.0000    -0.1088     3.8570     3.8570    -0.0000
 19 H      0.8891     1.0000     0.1109     0.9570     0.9570     0.0000
 20 C      5.9629     6.0000     0.0371     3.8882     3.8882     0.0000
 21 C      6.0983     6.0000    -0.0983     3.8707     3.8707    -0.0000
 22 H      0.8898     1.0000     0.1102     0.9633     0.9633    -0.0000
 23 C      6.1374     6.0000    -0.1374     3.9273     3.9273     0.0000
 24 H      0.8863     1.0000     0.1137     0.9661     0.9661     0.0000
 25 C      6.1159     6.0000    -0.1159     3.9260     3.9260     0.0000
 26 H      0.8939     1.0000     0.1061     0.9700     0.9700    -0.0000
 27 N      7.1663     7.0000    -0.1663     3.0407     3.0407     0.0000
 28 N      7.1691     7.0000    -0.1691     3.0345     3.0345    -0.0000
 29 Zn    29.8337    30.0000     0.1663     1.7108     1.7108     0.0000
 30 C      6.0216     6.0000    -0.0216     4.0179     4.0179     0.0000
 31 H      0.8717     1.0000     0.1283     0.9936     0.9936    -0.0000
 32 C      5.9723     6.0000     0.0277     3.9034     3.9034    -0.0000
 33 C      6.0551     6.0000    -0.0551     3.8558     3.8558    -0.0000
 34 H      0.8872     1.0000     0.1128     0.9550     0.9550    -0.0000
 35 C      5.9696     6.0000     0.0304     3.8618     3.8618     0.0000
 36 C      6.0941     6.0000    -0.0941     3.8605     3.8605     0.0000
 37 H      0.8825     1.0000     0.1175     0.9629     0.9629     0.0000
 38 C      6.1881     6.0000    -0.1881     3.9597     3.9597    -0.0000
 39 H      0.8985     1.0000     0.1015     0.9742     0.9742    -0.0000
 40 C      6.1262     6.0000    -0.1262     3.9247     3.9247     0.0000
 41 H      0.8932     1.0000     0.1068     0.9701     0.9701    -0.0000
 42 N      7.1773     7.0000    -0.1773     3.0654     3.0654    -0.0000
 43 N      7.1786     7.0000    -0.1786     3.0630     3.0630    -0.0000
 44 Zn    29.8047    30.0000     0.1953     1.7433     1.7433    -0.0000
 45 C      6.0187     6.0000    -0.0187     4.0218     4.0218    -0.0000
 46 H      0.8766     1.0000     0.1234     0.9925     0.9925    -0.0000
 47 C      5.9600     6.0000     0.0400     3.9108     3.9108     0.0000
 48 C      6.1127     6.0000    -0.1127     3.8617     3.8617     0.0000
 49 H      0.8833     1.0000     0.1167     0.9584     0.9584    -0.0000
 50 C      5.9872     6.0000     0.0128     3.8982     3.8982     0.0000
 51 C      6.0867     6.0000    -0.0867     3.8681     3.8681     0.0000
 52 H      0.9002     1.0000     0.0998     0.9635     0.9635     0.0000
 53 C      6.1275     6.0000    -0.1275     3.9327     3.9327     0.0000
 54 H      0.8969     1.0000     0.1031     0.9713     0.9713    -0.0000
 55 C      6.1210     6.0000    -0.1210     3.9231     3.9231     0.0000
 56 H      0.8971     1.0000     0.1029     0.9717     0.9717     0.0000
 57 N      7.1681     7.0000    -0.1681     3.0552     3.0552     0.0000
 58 N      7.1663     7.0000    -0.1663     3.0544     3.0544    -0.0000
 59 Zn    29.8167    30.0000     0.1833     1.7223     1.7223     0.0000
 60 C      6.0162     6.0000    -0.0162     4.0119     4.0119    -0.0000
 61 H      0.8758     1.0000     0.1242     0.9962     0.9962    -0.0000
 62 C      5.9355     6.0000     0.0645     3.8430     3.8430    -0.0000
 63 C      6.1037     6.0000    -0.1037     3.8619     3.8619     0.0000
 64 H      0.9032     1.0000     0.0968     0.9594     0.9594     0.0000
 65 C      5.9831     6.0000     0.0169     3.8824     3.8824     0.0000
 66 C      6.0851     6.0000    -0.0851     3.8432     3.8432    -0.0000
 67 H      0.8910     1.0000     0.1090     0.9575     0.9575     0.0000
 68 C      6.1459     6.0000    -0.1459     3.8823     3.8823     0.0000
 69 H      0.8895     1.0000     0.1105     0.9683     0.9683     0.0000
 70 C      6.1322     6.0000    -0.1322     3.9312     3.9312     0.0000
 71 H      0.8936     1.0000     0.1064     0.9710     0.9710     0.0000
 72 N      7.1829     7.0000    -0.1829     3.0537     3.0537    -0.0000
 73 N      7.1829     7.0000    -0.1829     3.0583     3.0583    -0.0000
 74 Zn    29.7936    30.0000     0.2064     1.7091     1.7091     0.0000
 75 C      6.0207     6.0000    -0.0207     4.0185     4.0185    -0.0000
 76 H      0.8765     1.0000     0.1235     0.9932     0.9932     0.0000
 77 C      5.9338     6.0000     0.0662     3.8570     3.8570     0.0000
 78 C      6.1101     6.0000    -0.1101     3.8584     3.8584    -0.0000
 79 H      0.8869     1.0000     0.1131     0.9570     0.9570    -0.0000
 80 C      5.9482     6.0000     0.0518     3.8490     3.8490    -0.0000
 81 C      6.1113     6.0000    -0.1113     3.8753     3.8753    -0.0000
 82 H      0.9079     1.0000     0.0921     0.9668     0.9668     0.0000
 83 C      6.1406     6.0000    -0.1406     3.9333     3.9333     0.0000
 84 H      0.8883     1.0000     0.1117     0.9667     0.9667     0.0000
 85 C      6.1157     6.0000    -0.1157     3.9073     3.9073     0.0000
 86 H      0.8806     1.0000     0.1194     0.9631     0.9631     0.0000
 87 N      7.1624     7.0000    -0.1624     3.0423     3.0423     0.0000
 88 N      7.1705     7.0000    -0.1705     3.0396     3.0396     0.0000
 89 Zn    29.8381    30.0000     0.1619     1.7104     1.7104    -0.0000

  Mayer bond orders larger than 0.100000
B(  0-C ,  1-H ) :   0.9507 B(  0-C , 13-N ) :   1.4266 B(  0-C , 27-N ) :   1.4285 
B(  2-C ,  3-C ) :   1.3106 B(  2-C , 13-N ) :   1.1717 B(  2-C , 20-C ) :   1.4205 
B(  3-C ,  4-H ) :   0.9241 B(  3-C ,  8-C ) :   1.5149 B(  5-C ,  6-C ) :   1.3060 
B(  5-C , 12-N ) :   1.1901 B(  5-C , 32-C ) :   1.4100 B(  6-C ,  7-H ) :   0.9571 
B(  6-C , 10-C ) :   1.5030 B(  8-C ,  9-H ) :   0.9554 B(  8-C , 25-C ) :   1.3672 
B( 10-C , 11-H ) :   0.9339 B( 10-C , 38-C ) :   1.3612 B( 12-N , 14-Zn) :   0.4099 
B( 12-N , 30-C ) :   1.4283 B( 13-N , 14-Zn) :   0.4182 B( 14-Zn, 29-Zn) :   0.3921 
B( 14-Zn, 44-Zn) :   0.3789 B( 14-Zn, 89-Zn) :   0.1068 B( 15-C , 16-H ) :   0.9497 
B( 15-C , 28-N ) :   1.4205 B( 15-C , 72-N ) :   1.4388 B( 17-C , 18-C ) :   1.3188 
B( 17-C , 28-N ) :   1.1541 B( 17-C , 65-C ) :   1.3808 B( 18-C , 19-H ) :   0.9289 
B( 18-C , 23-C ) :   1.5006 B( 20-C , 21-C ) :   1.3210 B( 20-C , 27-N ) :   1.1683 
B( 21-C , 22-H ) :   0.9127 B( 21-C , 25-C ) :   1.5319 B( 23-C , 24-H ) :   0.9490 
B( 23-C , 70-C ) :   1.3859 B( 25-C , 26-H ) :   0.9518 B( 27-N , 29-Zn) :   0.4005 
B( 28-N , 29-Zn) :   0.4060 B( 29-Zn, 74-Zn) :   0.3867 B( 30-C , 31-H ) :   0.9491 
B( 30-C , 43-N ) :   1.4297 B( 32-C , 33-C ) :   1.3331 B( 32-C , 43-N ) :   1.1614 
B( 33-C , 34-H ) :   0.9158 B( 33-C , 38-C ) :   1.5182 B( 35-C , 36-C ) :   1.3071 
B( 35-C , 42-N ) :   1.1542 B( 35-C , 47-C ) :   1.4327 B( 36-C , 37-H ) :   0.9052 
B( 36-C , 40-C ) :   1.5347 B( 38-C , 39-H ) :   0.9685 B( 40-C , 41-H ) :   0.9499 
B( 40-C , 53-C ) :   1.3582 B( 42-N , 44-Zn) :   0.4162 B( 42-N , 45-C ) :   1.4379 
B( 43-N , 44-Zn) :   0.4223 B( 44-Zn, 59-Zn) :   0.3930 B( 44-Zn, 74-Zn) :   0.1020 
B( 45-C , 46-H ) :   0.9506 B( 45-C , 58-N ) :   1.4329 B( 47-C , 48-C ) :   1.3071 
B( 47-C , 58-N ) :   1.1731 B( 48-C , 49-H ) :   0.9160 B( 48-C , 53-C ) :   1.5327 
B( 50-C , 51-C ) :   1.3304 B( 50-C , 57-N ) :   1.1732 B( 50-C , 77-C ) :   1.4147 
B( 51-C , 52-H ) :   0.9278 B( 51-C , 55-C ) :   1.5208 B( 53-C , 54-H ) :   0.9583 
B( 55-C , 56-H ) :   0.9546 B( 55-C , 83-C ) :   1.3706 B( 57-N , 59-Zn) :   0.4091 
B( 57-N , 75-C ) :   1.4399 B( 58-N , 59-Zn) :   0.4122 B( 59-Zn, 89-Zn) :   0.3834 
B( 60-C , 61-H ) :   0.9488 B( 60-C , 73-N ) :   1.4399 B( 60-C , 87-N ) :   1.4369 
B( 62-C , 63-C ) :   1.3179 B( 62-C , 73-N ) :   1.1571 B( 62-C , 80-C ) :   1.3891 
B( 63-C , 64-H ) :   0.9537 B( 63-C , 68-C ) :   1.4926 B( 65-C , 66-C ) :   1.3334 
B( 65-C , 72-N ) :   1.1692 B( 66-C , 67-H ) :   0.9259 B( 66-C , 70-C ) :   1.5026 
B( 68-C , 69-H ) :   0.9603 B( 68-C , 85-C ) :   1.3610 B( 70-C , 71-H ) :   0.9609 
B( 72-N , 74-Zn) :   0.4019 B( 73-N , 74-Zn) :   0.4180 B( 74-Zn, 89-Zn) :   0.3844 
B( 75-C , 76-H ) :   0.9508 B( 75-C , 88-N ) :   1.4236 B( 77-C , 78-C ) :   1.3102 
B( 77-C , 88-N ) :   1.1682 B( 78-C , 79-H ) :   0.9224 B( 78-C , 83-C ) :   1.5221 
B( 80-C , 81-C ) :   1.3134 B( 80-C , 87-N ) :   1.1689 B( 81-C , 82-H ) :   0.9438 
B( 81-C , 85-C ) :   1.5194 B( 83-C , 84-H ) :   0.9515 B( 85-C , 86-H ) :   0.9464 
B( 87-N , 89-Zn) :   0.3959 B( 88-N , 89-Zn) :   0.4092 

-------
TIMINGS
-------

Total SCF time: 0 days 6 hours 10 min 3 sec 

Total time                  ....   22203.374 sec
Sum of individual times     ....   22095.481 sec  ( 99.5%)

Fock matrix formation       ....   21746.455 sec  ( 97.9%)
  Split-RI-J                ....    3844.619 sec  ( 17.7% of F)
  Chain of spheres X        ....   17062.114 sec  ( 78.5% of F)
  XC integration            ....     813.595 sec  (  3.7% of F)
    Basis function eval.    ....     221.365 sec  ( 27.2% of XC)
    Density eval.           ....     326.920 sec  ( 40.2% of XC)
    XC-Functional eval.     ....      25.121 sec  (  3.1% of XC)
    XC-Potential eval.      ....     185.898 sec  ( 22.8% of XC)
Diagonalization             ....      63.987 sec  (  0.3%)
Density matrix formation    ....       8.259 sec  (  0.0%)
Population analysis         ....       2.298 sec  (  0.0%)
Initial guess               ....      46.381 sec  (  0.2%)
Orbital Transformation      ....      40.430 sec  (  0.2%)
Orbital Orthonormalization  ....       0.000 sec  (  0.0%)
DIIS solution               ....      38.090 sec  (  0.2%)
Grid generation             ....     149.569 sec  (  0.7%)

Maximum memory used throughout the entire SCF-calculation: 926.0 MB

-------------------------   --------------------
FINAL SINGLE POINT ENERGY    -12950.822033957747
-------------------------   --------------------


                            ***************************************
                            *     ORCA property calculations      *
                            ***************************************

                                    ---------------------
                                    Active property flags
                                    ---------------------
   (+) Dipole Moment


------------------------------------------------------------------------------
                       ORCA ELECTRIC PROPERTIES CALCULATION
------------------------------------------------------------------------------

Dipole Moment Calculation                       ... on
Quadrupole Moment Calculation                   ... off
Polarizability Calculation                      ... off
GBWName                                         ... zif7_lpA.gbw
Electron density                                ... zif7_lpA.scfp
The origin for moment calculation is the CENTER OF MASS  = (65.139629, 62.705341 49.670657)

-------------
DIPOLE MOMENT
-------------
                                X             Y             Z
Electronic contribution:     -0.69373      -0.09229      -0.15692
Nuclear contribution   :      0.63835       0.09174       0.15015
                        -----------------------------------------
Total Dipole Moment    :     -0.05539      -0.00056      -0.00677
                        -----------------------------------------
Magnitude (a.u.)       :      0.05580
Magnitude (Debye)      :      0.14184



--------------------
Rotational spectrum 
--------------------
 
Rotational constants in cm-1:     0.000889     0.000883     0.000559 
Rotational constants in MHz :    26.658926    26.475714    16.748536 

 Dipole components along the rotational axes: 
x,y,z [a.u.] :     0.043017    -0.034836    -0.007064 
x,y,z [Debye]:     0.109340    -0.088547    -0.017955 

 

Timings for individual modules:

Sum of individual times         ...    22214.971 sec (= 370.250 min)
GTO integral calculation        ...       10.998 sec (=   0.183 min)   0.0 %
SCF iterations                  ...    22203.973 sec (= 370.066 min) 100.0 %
                             ****ORCA TERMINATED NORMALLY****
TOTAL RUN TIME: 0 days 6 hours 10 minutes 18 seconds 826 msec
