Sat Dec 23 17:48:02 +07 2023
cn214

                                 *****************
                                 * O   R   C   A *
                                 *****************

                                            #,                                       
                                            ###                                      
                                            ####                                     
                                            #####                                    
                                            ######                                   
                                           ########,                                 
                                     ,,################,,,,,                         
                               ,,#################################,,                 
                          ,,##########################################,,             
                       ,#########################################, ''#####,          
                    ,#############################################,,   '####,        
                  ,##################################################,,,,####,       
                ,###########''''           ''''###############################       
              ,#####''   ,,,,##########,,,,          '''####'''          '####       
            ,##' ,,,,###########################,,,                        '##       
           ' ,,###''''                  '''############,,,                           
         ,,##''                                '''############,,,,        ,,,,,,###''
      ,#''                                            '''#######################'''  
     '                                                          ''''####''''         
             ,#######,   #######,   ,#######,      ##                                
            ,#'     '#,  ##    ##  ,#'     '#,    #''#        ######   ,####,        
            ##       ##  ##   ,#'  ##            #'  '#       #        #'  '#        
            ##       ##  #######   ##           ,######,      #####,   #    #        
            '#,     ,#'  ##    ##  '#,     ,#' ,#      #,         ##   #,  ,#        
             '#######'   ##     ##  '#######'  #'      '#     #####' # '####'        



                  #######################################################
                  #                        -***-                        #
                  #          Department of theory and spectroscopy      #
                  #    Directorship and core code : Frank Neese         #
                  #        Max Planck Institute fuer Kohlenforschung    #
                  #                Kaiser Wilhelm Platz 1               #
                  #                 D-45470 Muelheim/Ruhr               #
                  #                      Germany                        #
                  #                                                     #
                  #                  All rights reserved                #
                  #                        -***-                        #
                  #######################################################


                         Program Version 5.0.3 -  RELEASE  -


 With contributions from (in alphabetic order):
   Daniel Aravena         : Magnetic Suceptibility
   Michael Atanasov       : Ab Initio Ligand Field Theory (pilot matlab implementation)
   Alexander A. Auer      : GIAO ZORA, VPT2 properties, NMR spectrum
   Ute Becker             : Parallelization
   Giovanni Bistoni       : ED, misc. LED, open-shell LED, HFLD
   Martin Brehm           : Molecular dynamics
   Dmytro Bykov           : SCF Hessian
   Vijay G. Chilkuri      : MRCI spin determinant printing, contributions to CSF-ICE
   Dipayan Datta          : RHF DLPNO-CCSD density
   Achintya Kumar Dutta   : EOM-CC, STEOM-CC
   Dmitry Ganyushin       : Spin-Orbit,Spin-Spin,Magnetic field MRCI
   Miquel Garcia          : C-PCM and meta-GGA Hessian, CC/C-PCM, Gaussian charge scheme
   Yang Guo               : DLPNO-NEVPT2, F12-NEVPT2, CIM, IAO-localization
   Andreas Hansen         : Spin unrestricted coupled pair/coupled cluster methods
   Benjamin Helmich-Paris : MC-RPA, TRAH-SCF, COSX integrals
   Lee Huntington         : MR-EOM, pCC
   Robert Izsak           : Overlap fitted RIJCOSX, COSX-SCS-MP3, EOM
   Marcus Kettner         : VPT2
   Christian Kollmar      : KDIIS, OOCD, Brueckner-CCSD(T), CCSD density, CASPT2, CASPT2-K
   Simone Kossmann        : Meta GGA functionals, TD-DFT gradient, OOMP2, MP2 Hessian
   Martin Krupicka        : Initial AUTO-CI
   Lucas Lang             : DCDCAS
   Marvin Lechner         : AUTO-CI (C++ implementation), FIC-MRCC
   Dagmar Lenk            : GEPOL surface, SMD
   Dimitrios Liakos       : Extrapolation schemes; Compound Job, initial MDCI parallelization
   Dimitrios Manganas     : Further ROCIS development; embedding schemes
   Dimitrios Pantazis     : SARC Basis sets
   Anastasios Papadopoulos: AUTO-CI, single reference methods and gradients
   Taras Petrenko         : DFT Hessian,TD-DFT gradient, ASA, ECA, R-Raman, ABS, FL, XAS/XES, NRVS
   Peter Pinski           : DLPNO-MP2, DLPNO-MP2 Gradient
   Christoph Reimann      : Effective Core Potentials
   Marius Retegan         : Local ZFS, SOC
   Christoph Riplinger    : Optimizer, TS searches, QM/MM, DLPNO-CCSD(T), (RO)-DLPNO pert. Triples
   Tobias Risthaus        : Range-separated hybrids, TD-DFT gradient, RPA, STAB
   Michael Roemelt        : Original ROCIS implementation
   Masaaki Saitow         : Open-shell DLPNO-CCSD energy and density
   Barbara Sandhoefer     : DKH picture change effects
   Avijit Sen             : IP-ROCIS
   Kantharuban Sivalingam : CASSCF convergence, NEVPT2, FIC-MRCI
   Bernardo de Souza      : ESD, SOC TD-DFT
   Georgi Stoychev        : AutoAux, RI-MP2 NMR, DLPNO-MP2 response
   Willem Van den Heuvel  : Paramagnetic NMR
   Boris Wezisla          : Elementary symmetry handling
   Frank Wennmohs         : Technical directorship


 We gratefully acknowledge several colleagues who have allowed us to
 interface, adapt or use parts of their codes:
   Stefan Grimme, W. Hujo, H. Kruse, P. Pracht,  : VdW corrections, initial TS optimization,
                  C. Bannwarth, S. Ehlert          DFT functionals, gCP, sTDA/sTD-DF
   Ed Valeev, F. Pavosevic, A. Kumar             : LibInt (2-el integral package), F12 methods
   Garnet Chan, S. Sharma, J. Yang, R. Olivares  : DMRG
   Ulf Ekstrom                                   : XCFun DFT Library
   Mihaly Kallay                                 : mrcc  (arbitrary order and MRCC methods)
   Jiri Pittner, Ondrej Demel                    : Mk-CCSD
   Frank Weinhold                                : gennbo (NPA and NBO analysis)
   Christopher J. Cramer and Donald G. Truhlar   : smd solvation model
   Lars Goerigk                                  : TD-DFT with DH, B97 family of functionals
   V. Asgeirsson, H. Jonsson                     : NEB implementation
   FAccTs GmbH                                   : IRC, NEB, NEB-TS, DLPNO-Multilevel, CI-OPT
                                                   MM, QMMM, 2- and 3-layer-ONIOM, Crystal-QMMM,
                                                   LR-CPCM, SF, NACMEs, symmetry and pop. for TD-DFT,
                                                   nearIR, NL-DFT gradient (VV10), updates on ESD,
                                                   ML-optimized integration grids
   S Lehtola, MJT Oliveira, MAL Marques          : LibXC Library
   Liviu Ungur et al                             : ANISO software


 Your calculation uses the libint2 library for the computation of 2-el integrals
 For citations please refer to: http://libint.valeyev.net

 Your ORCA version has been built with support for libXC version: 5.1.0
 For citations please refer to: https://tddft.org/programs/libxc/

 This ORCA versions uses:
   CBLAS   interface :  Fast vector & matrix operations
   LAPACKE interface :  Fast linear algebra routines
   SCALAPACK package :  Parallel linear algebra routines
   Shared memory     :  Shared parallel matrices
   BLAS/LAPACK       :  OpenBLAS 0.3.15  USE64BITINT DYNAMIC_ARCH NO_AFFINITY Nehalem SINGLE_THREADED
        Core in use  :  Nehalem
   Copyright (c) 2011-2014, The OpenBLAS Project


================================================================================

----- Orbital basis set information -----
Your calculation utilizes the basis: TZVP 

----- AuxJ basis set information -----
Your calculation utilizes the auxiliary basis: def2/J
   F. Weigend, Phys. Chem. Chem. Phys. 8, 1057 (2006).

================================================================================
                                        WARNINGS
                       Please study these warnings very carefully!
================================================================================


INFO   : the flag for use of the SHARK integral package has been found!

================================================================================
                                       INPUT FILE
================================================================================
NAME = zif7_lpB.inp
|  1> ! DFT B3LYP TZVP def2/J RIJCOSX
|  2> %maxcore 8000
|  3> 
|  4> * xyz 0 1
|  5>   C       42.840000000     19.620000000      7.700000000
|  6>   H       43.890000000     19.860000000      7.850000000
|  7>   C       40.890000000     19.490000000      6.760000000
|  8>   C       39.720000000     19.760000000      6.040000000
|  9>   H       39.750000000     20.250000000      5.070000000
| 10>   C       38.520000000     19.650000000      6.720000000
| 11>   H       37.600000000     19.970000000      6.240000000
| 12>   C       38.460000000     19.080000000      8.010000000
| 13>   H       37.480000000     18.930000000      8.470000000
| 14>   C       41.110000000     23.540000000      5.060000000
| 15>   H       40.410000000     23.040000000      5.720000000
| 16>   C       42.760000000     23.810000000      3.680000000
| 17>   C       43.720000000     23.620000000      2.670000000
| 18>   H       44.300000000     22.700000000      2.580000000
| 19>   C       45.290000000     22.290000000      6.770000000
| 20>   C       44.530000000     22.930000000      7.750000000
| 21>   H       43.470000000     22.740000000      7.860000000
| 22>   C       43.870000000     24.640000000      1.750000000
| 23>   H       44.590000000     24.520000000      0.940000000
| 24>   C       45.210000000     23.650000000      8.720000000
| 25>   H       44.640000000     24.210000000      9.460000000
| 26>   N       42.180000000     19.980000000      6.570000000
| 27>   N       44.910000000     21.470000000      5.710000000
| 28>   N       42.180000000     22.890000000      4.560000000
| 29>   Zn      43.010000000     21.120000000      5.120000000
| 30>   C       37.440000000     25.590000000      6.960000000
| 31>   C       37.100000000     24.400000000      6.290000000
| 32>   H       37.670000000     24.050000000      5.430000000
| 33>   C       42.150000000     28.040000000      6.690000000
| 34>   C       42.620000000     27.070000000      7.570000000
| 35>   H       42.760000000     26.050000000      7.230000000
| 36>   C       42.040000000     25.030000000      3.780000000
| 37>   C       42.310000000     26.100000000      2.910000000
| 38>   H       41.760000000     27.040000000      2.970000000
| 39>   C       43.360000000     27.530000000      8.650000000
| 40>   H       43.660000000     26.820000000      9.420000000
| 41>   C       43.200000000     25.870000000      1.880000000
| 42>   H       43.470000000     26.700000000      1.230000000
| 43>   N       41.000000000     24.840000000      4.690000000
| 44>   N       38.550000000     26.410000000      6.800000000
| 45>   N       41.170000000     27.980000000      5.700000000
| 46>   Zn      39.900000000     26.460000000      5.300000000
| 47>   C       38.550000000     27.210000000      7.880000000
| 48>   C       36.800000000     25.950000000      8.190000000
| 49>   C       36.270000000     23.520000000      6.960000000
| 50>   C       40.820000000     18.910000000      8.070000000
| 51>   C       39.580000000     18.610000000      8.660000000
| 52>   N       42.090000000     19.010000000      8.650000000
| 53>   C       42.070000000     19.090000000     13.210000000
| 54>   H       41.350000000     18.270000000     13.130000000
| 55>   C       43.640000000     20.490000000     12.670000000
| 56>   C       44.320000000     21.460000000     11.930000000
| 57>   H       44.350000000     21.430000000     10.840000000
| 58>   C       44.590000000     22.660000000     12.560000000
| 59>   H       44.920000000     23.500000000     11.960000000
| 60>   C       44.300000000     22.870000000     13.920000000
| 61>   H       44.520000000     23.850000000     14.350000000
| 62>   H       39.510000000     18.280000000      9.690000000
| 63>   N       42.930000000     19.380000000     12.210000000
| 64>   Zn      42.940000000     18.420000000     10.410000000
| 65>   C       43.150000000     20.800000000     13.990000000
| 66>   C       43.520000000     21.980000000     14.640000000
| 67>   N       42.100000000     19.920000000     14.270000000
| 68>   H       39.320000000     27.960000000      8.040000000
| 69>   C       35.880000000     25.080000000      8.790000000
| 70>   H       35.570000000     25.220000000      9.830000000
| 71>   C       35.720000000     23.830000000      8.210000000
| 72>   H       35.280000000     23.030000000      8.810000000
| 73>   H       36.140000000     22.510000000      6.570000000
| 74>   C       39.580000000     27.500000000     12.920000000
| 75>   C       40.800000000     27.930000000     12.380000000
| 76>   H       40.910000000     28.130000000     11.310000000
| 77>   N       37.560000000     26.990000000      8.770000000
| 78>   N       38.320000000     27.370000000     12.330000000
| 79>   Zn      37.520000000     27.990000000     10.560000000
| 80>   C       37.600000000     26.700000000     13.250000000
| 81>   C       39.520000000     26.910000000     14.220000000
| 82>   C       41.930000000     27.740000000     13.150000000
| 83>   H       42.980000000     22.340000000     15.520000000
| 84>   C       38.450000000     18.420000000     14.200000000
| 85>   C       38.120000000     19.380000000     13.230000000
| 86>   H       38.370000000     20.430000000     13.370000000
| 87>   C       38.470000000     21.350000000     17.310000000
| 88>   C       38.210000000     20.310000000     18.210000000
| 89>   H       38.730000000     19.350000000     18.150000000
| 90>   C       37.190000000     19.000000000     12.270000000
| 91>   H       36.930000000     19.710000000     11.480000000
| 92>   C       37.270000000     20.550000000     19.200000000
| 93>   H       36.970000000     19.720000000     19.840000000
| 94>   N       39.360000000     21.430000000     16.240000000
| 95>   N       39.400000000     18.440000000     15.220000000
| 96>   Zn      40.650000000     19.930000000     15.690000000
| 97>   H       36.560000000     26.420000000     13.090000000
| 98>   C       40.670000000     26.800000000     15.020000000
| 99>   H       40.670000000     26.230000000     15.950000000
|100>   C       41.870000000     27.180000000     14.440000000
|101>   H       42.810000000     26.920000000     14.930000000
|102>   H       42.910000000     27.860000000     12.690000000
|103>   C       39.130000000     22.650000000     15.720000000
|104>   H       39.630000000     23.000000000     14.850000000
|105>   C       37.760000000     22.580000000     17.390000000
|106>   C       36.840000000     22.820000000     18.420000000
|107>   H       36.240000000     23.730000000     18.470000000
|108>   C       35.090000000     23.990000000     14.350000000
|109>   C       35.790000000     23.070000000     13.570000000
|110>   H       36.690000000     22.580000000     13.950000000
|111>   C       36.620000000     21.790000000     19.320000000
|112>   H       35.900000000     21.930000000     20.130000000
|113>   C       35.130000000     22.550000000     12.470000000
|114>   H       35.650000000     21.830000000     11.830000000
|115>   N       38.260000000     26.330000000     14.370000000
|116>   N       35.520000000     24.850000000     15.370000000
|117>   N       38.200000000     23.400000000     16.350000000
|118>   Zn      37.440000000     25.230000000     15.880000000
|119> **                         ****END OF INPUT****
================================================================================

                       ****************************
                       * Single Point Calculation *
                       ****************************

---------------------------------
CARTESIAN COORDINATES (ANGSTROEM)
---------------------------------
  C     42.840000   19.620000    7.700000
  H     43.890000   19.860000    7.850000
  C     40.890000   19.490000    6.760000
  C     39.720000   19.760000    6.040000
  H     39.750000   20.250000    5.070000
  C     38.520000   19.650000    6.720000
  H     37.600000   19.970000    6.240000
  C     38.460000   19.080000    8.010000
  H     37.480000   18.930000    8.470000
  C     41.110000   23.540000    5.060000
  H     40.410000   23.040000    5.720000
  C     42.760000   23.810000    3.680000
  C     43.720000   23.620000    2.670000
  H     44.300000   22.700000    2.580000
  C     45.290000   22.290000    6.770000
  C     44.530000   22.930000    7.750000
  H     43.470000   22.740000    7.860000
  C     43.870000   24.640000    1.750000
  H     44.590000   24.520000    0.940000
  C     45.210000   23.650000    8.720000
  H     44.640000   24.210000    9.460000
  N     42.180000   19.980000    6.570000
  N     44.910000   21.470000    5.710000
  N     42.180000   22.890000    4.560000
  Zn    43.010000   21.120000    5.120000
  C     37.440000   25.590000    6.960000
  C     37.100000   24.400000    6.290000
  H     37.670000   24.050000    5.430000
  C     42.150000   28.040000    6.690000
  C     42.620000   27.070000    7.570000
  H     42.760000   26.050000    7.230000
  C     42.040000   25.030000    3.780000
  C     42.310000   26.100000    2.910000
  H     41.760000   27.040000    2.970000
  C     43.360000   27.530000    8.650000
  H     43.660000   26.820000    9.420000
  C     43.200000   25.870000    1.880000
  H     43.470000   26.700000    1.230000
  N     41.000000   24.840000    4.690000
  N     38.550000   26.410000    6.800000
  N     41.170000   27.980000    5.700000
  Zn    39.900000   26.460000    5.300000
  C     38.550000   27.210000    7.880000
  C     36.800000   25.950000    8.190000
  C     36.270000   23.520000    6.960000
  C     40.820000   18.910000    8.070000
  C     39.580000   18.610000    8.660000
  N     42.090000   19.010000    8.650000
  C     42.070000   19.090000   13.210000
  H     41.350000   18.270000   13.130000
  C     43.640000   20.490000   12.670000
  C     44.320000   21.460000   11.930000
  H     44.350000   21.430000   10.840000
  C     44.590000   22.660000   12.560000
  H     44.920000   23.500000   11.960000
  C     44.300000   22.870000   13.920000
  H     44.520000   23.850000   14.350000
  H     39.510000   18.280000    9.690000
  N     42.930000   19.380000   12.210000
  Zn    42.940000   18.420000   10.410000
  C     43.150000   20.800000   13.990000
  C     43.520000   21.980000   14.640000
  N     42.100000   19.920000   14.270000
  H     39.320000   27.960000    8.040000
  C     35.880000   25.080000    8.790000
  H     35.570000   25.220000    9.830000
  C     35.720000   23.830000    8.210000
  H     35.280000   23.030000    8.810000
  H     36.140000   22.510000    6.570000
  C     39.580000   27.500000   12.920000
  C     40.800000   27.930000   12.380000
  H     40.910000   28.130000   11.310000
  N     37.560000   26.990000    8.770000
  N     38.320000   27.370000   12.330000
  Zn    37.520000   27.990000   10.560000
  C     37.600000   26.700000   13.250000
  C     39.520000   26.910000   14.220000
  C     41.930000   27.740000   13.150000
  H     42.980000   22.340000   15.520000
  C     38.450000   18.420000   14.200000
  C     38.120000   19.380000   13.230000
  H     38.370000   20.430000   13.370000
  C     38.470000   21.350000   17.310000
  C     38.210000   20.310000   18.210000
  H     38.730000   19.350000   18.150000
  C     37.190000   19.000000   12.270000
  H     36.930000   19.710000   11.480000
  C     37.270000   20.550000   19.200000
  H     36.970000   19.720000   19.840000
  N     39.360000   21.430000   16.240000
  N     39.400000   18.440000   15.220000
  Zn    40.650000   19.930000   15.690000
  H     36.560000   26.420000   13.090000
  C     40.670000   26.800000   15.020000
  H     40.670000   26.230000   15.950000
  C     41.870000   27.180000   14.440000
  H     42.810000   26.920000   14.930000
  H     42.910000   27.860000   12.690000
  C     39.130000   22.650000   15.720000
  H     39.630000   23.000000   14.850000
  C     37.760000   22.580000   17.390000
  C     36.840000   22.820000   18.420000
  H     36.240000   23.730000   18.470000
  C     35.090000   23.990000   14.350000
  C     35.790000   23.070000   13.570000
  H     36.690000   22.580000   13.950000
  C     36.620000   21.790000   19.320000
  H     35.900000   21.930000   20.130000
  C     35.130000   22.550000   12.470000
  H     35.650000   21.830000   11.830000
  N     38.260000   26.330000   14.370000
  N     35.520000   24.850000   15.370000
  N     38.200000   23.400000   16.350000
  Zn    37.440000   25.230000   15.880000

----------------------------
CARTESIAN COORDINATES (A.U.)
----------------------------
  NO LB      ZA    FRAG     MASS         X           Y           Z
   0 C     6.0000    0    12.011   80.955868   37.076427   14.550891
   1 H     1.0000    0     1.008   82.940080   37.529961   14.834350
   2 C     6.0000    0    12.011   77.270902   36.830762   12.774549
   3 C     6.0000    0    12.011   75.059922   37.340988   11.413946
   4 H     1.0000    0     1.008   75.116614   38.266954    9.580911
   5 C     6.0000    0    12.011   72.792251   37.133119   12.698960
   6 H     1.0000    0     1.008   71.053703   37.737831   11.791891
   7 C     6.0000    0    12.011   72.678867   36.055975   15.136706
   8 H     1.0000    0     1.008   70.826935   35.772516   16.005980
   9 C     6.0000    0    12.011   77.686641   44.484153    9.562014
  10 H     1.0000    0     1.008   76.363833   43.539290   10.809233
  11 C     6.0000    0    12.011   80.804689   44.994379    6.954192
  12 C     6.0000    0    12.011   82.618827   44.635331    5.045569
  13 H     1.0000    0     1.008   83.714868   42.896783    4.875493
  14 C     6.0000    0    12.011   85.585697   42.121996   12.793446
  15 C     6.0000    0    12.011   84.149505   43.331420   14.645378
  16 H     1.0000    0     1.008   82.146395   42.972372   14.853247
  17 C     6.0000    0    12.011   82.902285   46.562852    3.307021
  18 H     1.0000    0     1.008   84.262888   46.336085    1.776343
  19 C     6.0000    0    12.011   85.434519   44.692023   16.478412
  20 H     1.0000    0     1.008   84.357375   45.750270   17.876809
  21 N     7.0000    0    14.007   79.708648   37.756728   12.415501
  22 N     7.0000    0    14.007   84.867601   40.572420   10.790336
  23 N     7.0000    0    14.007   79.708648   43.255831    8.617151
  24 Zn   30.0000    0    65.380   81.277121   39.911016    9.675398
  25 C     6.0000    0    12.011   70.751346   48.358092   13.152494
  26 C     6.0000    0    12.011   70.108840   46.109318   11.886377
  27 H     1.0000    0     1.008   71.185983   45.447914   10.261213
  28 C     6.0000    0    12.011   79.651957   52.987921   12.642268
  29 C     6.0000    0    12.011   80.540128   51.154886   14.305227
  30 H     1.0000    0     1.008   80.804689   49.227366   13.662720
  31 C     6.0000    0    12.011   79.444087   47.299845    7.143165
  32 C     6.0000    0    12.011   79.954313   49.321852    5.499103
  33 H     1.0000    0     1.008   78.914963   51.098195    5.612487
  34 C     6.0000    0    12.011   81.938525   52.024160   16.346131
  35 H     1.0000    0     1.008   82.505443   50.682455   17.801220
  36 C     6.0000    0    12.011   81.636169   48.887215    3.552685
  37 H     1.0000    0     1.008   82.146395   50.455688    2.324363
  38 N     7.0000    0    14.007   77.478771   46.940797    8.862816
  39 N     7.0000    0    14.007   72.848942   49.907667   12.850138
  40 N     7.0000    0    14.007   77.800025   52.874537   10.771439
  41 Zn   30.0000    0    65.380   75.400073   50.002154   10.015549
  42 C     6.0000    0    12.011   72.848942   51.419448   14.891042
  43 C     6.0000    0    12.011   69.541922   49.038393   15.476857
  44 C     6.0000    0    12.011   68.540367   44.446359   13.152494
  45 C     6.0000    0    12.011   77.138621   35.734721   15.250090
  46 C     6.0000    0    12.011   74.795360   35.167803   16.365028
  47 N     7.0000    0    14.007   79.538573   35.923694   16.346131
  48 C     6.0000    0    12.011   79.500778   36.074872   24.963282
  49 H     1.0000    0     1.008   78.140176   34.525296   24.812104
  50 C     6.0000    0    12.011   82.467648   38.720488   23.942830
  51 C     6.0000    0    12.011   83.752662   40.553523   22.544433
  52 H     1.0000    0     1.008   83.809354   40.496831   20.484631
  53 C     6.0000    0    12.011   84.262888   42.821194   23.734960
  54 H     1.0000    0     1.008   84.886498   44.408564   22.601125
  55 C     6.0000    0    12.011   83.714868   43.218037   26.304988
  56 H     1.0000    0     1.008   84.130607   45.069968   27.117570
  57 H     1.0000    0     1.008   74.663080   34.544194   18.311446
  58 N     7.0000    0    14.007   81.125943   36.622892   23.073556
  59 Zn   30.0000    0    65.380   81.144840   34.808755   19.672049
  60 C     6.0000    0    12.011   81.541683   39.306304   26.437269
  61 C     6.0000    0    12.011   82.240881   41.536180   27.665591
  62 N     7.0000    0    14.007   79.557470   37.643345   26.966392
  63 H     1.0000    0     1.008   74.304032   52.836743   15.193398
  64 C     6.0000    0    12.011   67.803374   47.394331   16.610693
  65 H     1.0000    0     1.008   67.217559   47.658893   18.576008
  66 C     6.0000    0    12.011   67.501018   45.032174   15.514652
  67 H     1.0000    0     1.008   66.669538   43.520393   16.648487
  68 H     1.0000    0     1.008   68.294702   42.537735   12.415501
  69 C     6.0000    0    12.011   74.795360   51.967469   24.415262
  70 C     6.0000    0    12.011   77.100826   52.780051   23.394810
  71 H     1.0000    0     1.008   77.308696   53.157996   21.372803
  72 N     7.0000    0    14.007   70.978114   51.003708   16.572898
  73 N     7.0000    0    14.007   72.414305   51.721804   23.300323
  74 Zn   30.0000    0    65.380   70.902525   52.893434   19.955508
  75 C     6.0000    0    12.011   71.053703   50.455688   25.038871
  76 C     6.0000    0    12.011   74.681977   50.852530   26.871906
  77 C     6.0000    0    12.011   79.236217   52.421003   24.849899
  78 H     1.0000    0     1.008   81.220429   42.216482   29.328550
  79 C     6.0000    0    12.011   72.659970   34.808755   26.834111
  80 C     6.0000    0    12.011   72.036360   36.622892   25.001077
  81 H     1.0000    0     1.008   72.508792   38.607105   25.265638
  82 C     6.0000    0    12.011   72.697764   40.345653   32.711159
  83 C     6.0000    0    12.011   72.206436   38.380338   34.411913
  84 H     1.0000    0     1.008   73.189093   36.566201   34.298529
  85 C     6.0000    0    12.011   70.278915   35.904797   23.186940
  86 H     1.0000    0     1.008   69.787586   37.246502   21.694056
  87 C     6.0000    0    12.011   70.430093   38.833872   36.282742
  88 H     1.0000    0     1.008   69.863175   37.265399   37.492166
  89 N     7.0000    0    14.007   74.379621   40.496831   30.689152
  90 N     7.0000    0    14.007   74.455210   34.846550   28.761632
  91 Zn   30.0000    0    65.380   76.817367   37.662242   29.649803
  92 H     1.0000    0     1.008   69.088387   49.926564   24.736515
  93 C     6.0000    0    12.011   76.855162   50.644660   28.383687
  94 H     1.0000    0     1.008   76.855162   49.567516   30.141132
  95 C     6.0000    0    12.011   79.122833   51.362756   27.287645
  96 H     1.0000    0     1.008   80.899176   50.871428   28.213611
  97 H     1.0000    0     1.008   81.088148   52.647770   23.980625
  98 C     6.0000    0    12.011   73.944984   42.802297   29.706495
  99 H     1.0000    0     1.008   74.889847   43.463701   28.062433
 100 C     6.0000    0    12.011   71.356059   42.670016   32.862337
 101 C     6.0000    0    12.011   69.617511   43.123550   34.808755
 102 H     1.0000    0     1.008   68.483675   44.843201   34.903242
 103 C     6.0000    0    12.011   66.310490   45.334530   27.117570
 104 C     6.0000    0    12.011   67.633298   43.595982   25.643584
 105 H     1.0000    0     1.008   69.334052   42.670016   26.361680
 106 C     6.0000    0    12.011   69.201771   41.177132   36.509509
 107 H     1.0000    0     1.008   67.841168   41.441694   38.040187
 108 C     6.0000    0    12.011   66.386079   42.613324   23.564885
 109 H     1.0000    0     1.008   67.368737   41.252722   22.355460
 110 N     7.0000    0    14.007   72.300922   49.756489   27.155365
 111 N     7.0000    0    14.007   67.123072   46.959694   29.045091
 112 N     7.0000    0    14.007   72.187538   44.219592   30.897022
 113 Zn   30.0000    0    65.380   70.751346   47.677790   30.008851

--------------------------------
INTERNAL COORDINATES (ANGSTROEM)
--------------------------------
 C      0   0   0     0.000000000000     0.00000000     0.00000000
 H      1   0   0     1.087474137624     0.00000000     0.00000000
 C      1   2   0     2.168640126900   160.25624927     0.00000000
 C      3   1   2     1.400071426749   164.31577840   320.94860338
 H      4   3   1     1.087152243248   121.51367582    43.08103263
 C      4   3   1     1.383654581173   117.17349757   236.74123966
 H      6   4   3     1.085909756840   119.61054743   172.30975584
 C      6   4   3     1.411594842722   121.20379096   349.80628339
 H      8   6   4     1.092931836850   118.56554177   185.55617322
 C      5   4   3     3.560028089777   115.44090454   298.22782523
 H     10   5   4     1.084250893474    47.58356932   315.93346939
 C     10   5   4     2.167902211817   114.05682337   124.74751804
 C     12  10   5     1.406342774717   163.71557901     8.32648038
 H     13  12  10     1.091283647820   122.40692034   313.31772970
 C      2   1   3     3.005212138935   125.35821440    32.22042332
 C     15   2   1     1.395564401954    82.22739304    72.01643247
 H     16  15   2     1.082497113160   121.60968149   311.91898792
 C     13  12  10     1.381774221789   116.90684629   130.98596476
 H     18  13  12     1.090366910723   119.01591516   181.26373174
 C     16  15   2     1.386253944990   117.54334918   121.54134054
 H     20  16  15     1.089082182390   119.06342921   176.22966553
 N      1   2  17     1.357239846158   121.72387304    64.00745508
 N     15   2   1     1.392982411949    70.75512477   293.54115513
 N     10   5   4     1.348109787814    81.87501987   102.67941573
 Zn    23  15   2     2.020049504344   125.50909866    68.48451422
 C     11  10   5     4.106214801980   111.37108136   217.89338254
 C     26  11  10     1.407337912514    60.38753528   122.59843268
 H     27  26  11     1.089495295997   121.40184598   318.85748330
 C     10   5   4     4.897805631096   158.32171221   325.88350318
 C     29  10   5     1.391474038565    69.00484722    57.75150970
 H     30  29  10     1.084250893474   120.07222891    19.46992655
 C     12  10   5     1.420140838086    71.11284702   147.91167299
 C     32  12  10     1.405240192992   120.87179962   189.36920699
 H     33  32  12     1.090733698022   121.68625316   179.52441984
 C     30  29  10     1.387659900696   116.18345115   175.23540197
 H     35  30  29     1.089495295997   118.74211762   173.70460085
 C     33  32  12     1.380543371285   117.31735522     6.30624988
 H     37  33  32     1.088255484709   118.58788457   183.62297156
 N     10   5   4     1.356097341639   148.83712927   229.14397658
 N     26  11  10     1.389280389266    75.75131270   328.35876641
 N     29  10   5     1.394309865130    64.84423823   254.60960956
 Zn    40  26  11     2.018662923819   129.38428074    44.25638807
 C     40  26  11     1.344023809313   104.99766098   223.77628477
 C     26  11  10     1.432515270425   137.60356259   227.26509235
 C     27  26  11     1.382823199111   116.90056228   121.82292907
 C      3   1   2     1.434363970546    70.86784010   182.43572601
 C      8   6   4     1.377606620193   122.30301354     0.20942075
 N      1   2  22     1.355396620920   122.47430976   183.59865853
 C     48   1   2     4.560745553087   134.05267870    32.58497208
 H     49  48   1     1.094166349327    85.21809364   188.61432273
 C     49  48   1     2.171750446069    76.08576315     1.92108603
 C     51  49  48     1.396746218896   158.64923096    33.20096215
 H     52  51  49     1.090825375576   121.58021388   319.86857864
 C     52  51  49     1.381955136754   117.16966790   120.08433764
 H     54  52  51     1.083743512091   118.69461431   192.93554953
 C     54  52  51     1.406342774717   122.02087827     5.23750436
 H     56  54  52     1.092565787493   118.23027195   181.26244083
 H     47   8   6     1.083835780919   119.98450712   173.28460713
 N     49  48   1     1.350444371309    42.31951983   339.73557681
 Zn    59  49  48     2.040024509657   123.74093469   328.97808667
 C     51  49  48     1.441735065815    70.44328447   156.71821004
 C     56  54  52     1.385243660877   121.52091318   348.46880880
 N     49  48   1     1.346625411909   142.91463149    47.51817790
 H     43  40  26     1.086738238952   121.94445508   179.19208945
 C     44  26  11     1.401178075763   120.33001164   285.37440615
 H     65  44  26     1.094212045264   120.90199378   165.03031005
 C     65  44  26     1.387263493357   117.14008364     5.73394119
 H     67  65  44     1.092520022700   118.46610458   160.36932676
 H     45  27  26     1.090458619114   119.18915425   191.97935176
 C     64  43  40     4.908523199497    96.84759885   216.18251928
 C     70  64  43     1.401748907615    68.55295594   151.90914458
 H     71  70  64     1.094074951729   121.35493034     2.82786675
 N     43  40  26     1.349296112794   115.65671504     1.32151062
 N     70  64  43     1.397354643603    62.68921994   323.65359217
 Zn    74  70  64     2.038945806048   133.79147053   338.02849982
 C     74  70  64     1.346736796854   103.88188177   159.42300192
 C     70  64  43     1.428880680813   160.21810061    29.32700210
 C     71  70  64     1.380543371285   117.08472887   200.29402733
 H     62  56  54     1.093434954627   119.00309462   204.98171454
 C     50  49  48     3.094737468672   123.71239359   241.39105589
 C     80  50  49     1.404065525536    90.83206273    67.72352292
 H     81  80  50     1.088393311262   121.11516921   278.83736780
 C     82  81  80     4.047221268970   110.49927092   331.37467831
 C     83  82  81     1.399714256554   116.90202438     0.89233413
 H     84  83  82     1.093434954627   121.91882999    50.59828593
 C     81  80  50     1.389568278279   116.59021020   114.34144168
 H     86  81  80     1.093526405717   118.72950122   181.82785162
 C     84  83  82     1.386109663771   117.16540918   229.87382686
 H     88  84  83     1.090183470797   118.29994591   173.18484509
 N     83  82  81     1.394058822288    44.07832448   122.99702420
 N     80  50  49     1.394022955335    67.36118113   292.92443580
 Zn    91  80  50     2.000874808677   127.46642042    71.37478912
 H     76  74  70     1.088852607105   122.56047800   180.96102940
 C     77  70  64     1.405204611436   121.05896402   116.90986595
 H     94  77  70     1.090779537762   121.75597452   188.73858420
 C     94  77  70     1.385929291126   116.67184240   354.45538511
 H     96  94  77     1.091466902842   119.50491225   192.93332538
 H     78  71  70     1.089219904335   119.06032671   167.03203135
 C     90  83  82     1.345994056450   103.85399452    89.80799791
 H     99  90  83     1.062732327541   122.30216197   182.82446432
 C     83  82  81     1.422462653288   103.82621471   225.00430336
 C    101  83  82     1.401748907615   121.12906186   137.66991826
 H    102 101  83     1.091146186356   122.50414313   183.72541752
 C     93  76  74     3.106992114570   126.40063966   152.13149654
 C    104  93  76     1.394560862781    92.96072715   288.74033383
 H    105 104  93     1.092931836850   120.97367201    95.05574386
 C    102 101  83     1.385388032286   117.01873737   357.63722023
 H    107 102 101     1.092748827499   119.40130595   180.86445199
 C    105 104  93     1.384196517840   116.93476393   258.74743461
 H    109 105 104     1.094714574672   119.02455576   179.58819327
 N     76  74  70     1.351628647225   116.18008229   357.79545723
 N    104  93  76     1.401748907615    70.73852037    61.55413381
 N     99  90  83     1.350666502139   116.15249212     1.34868972
 Zn   112 104  93     2.022597340056   126.15319302   293.11162763

---------------------------
INTERNAL COORDINATES (A.U.)
---------------------------
 C      0   0   0     0.000000000000     0.00000000     0.00000000
 H      1   0   0     2.055028297831     0.00000000     0.00000000
 C      1   2   0     4.098135922873   160.25624927     0.00000000
 C      3   1   2     2.645751564485   164.31577840   320.94860338
 H      4   3   1     2.054420005618   121.51367582    43.08103263
 C      4   3   1     2.614728222362   117.17349757   236.74123966
 H      6   4   3     2.052072046580   119.61054743   172.30975584
 C      6   4   3     2.667527664801   121.20379096   349.80628339
 H      8   6   4     2.065341854690   118.56554177   185.55617322
 C      5   4   3     6.727478118745   115.44090454   298.22782523
 H     10   5   4     2.048937249126    47.58356932   315.93346939
 C     10   5   4     4.096741465456   114.05682337   124.74751804
 C     12  10   5     2.657602694635   163.71557901     8.32648038
 H     13  12  10     2.062227228807   122.40692034   313.31772970
 C      2   1   3     5.679027916922   125.35821440    32.22042332
 C     15   2   1     2.637234521942    82.22739304    72.01643247
 H     16  15   2     2.045623084633   121.60968149   311.91898792
 C     13  12  10     2.611174858093   116.90684629   130.98596476
 H     18  13  12     2.060494846757   119.01591516   181.26373174
 C     16  15   2     2.619640308099   117.54334918   121.54134054
 H     20  16  15     2.058067062051   119.06342921   176.22966553
 N      1   2  17     2.564811607285   121.72387304    64.00745508
 N     15   2   1     2.632355267953    70.75512477   293.54115513
 N     10   5   4     2.547558297427    81.87501987   102.67941573
 Zn    23  15   2     3.817340340173   125.50909866    68.48451422
 C     11  10   5     7.759621422796   111.37108136   217.89338254
 C     26  11  10     2.659483232536    60.38753528   122.59843268
 H     27  26  11     2.058847733630   121.40184598   318.85748330
 C     10   5   4     9.255511299950   158.32171221   325.88350318
 C     29  10   5     2.629504855349    69.00484722    57.75150970
 H     30  29  10     2.048937249126   120.07222891    19.46992655
 C     12  10   5     2.683677255580    71.11284702   147.91167299
 C     32  12  10     2.655519117133   120.87179962   189.36920699
 H     33  32  12     2.061187974300   121.68625316   179.52441984
 C     30  29  10     2.622297179340   116.18345115   175.23540197
 H     35  30  29     2.058847733630   118.74211762   173.70460085
 C     33  32  12     2.608848887730   117.31735522     6.30624988
 H     37  33  32     2.056504829838   118.58788457   183.62297156
 N     10   5   4     2.562652586636   148.83712927   229.14397658
 N     26  11  10     2.625359458941    75.75131270   328.35876641
 N     29  10   5     2.634863790921    64.84423823   254.60960956
 Zn    40  26  11     3.814720082718   129.38428074    44.25638807
 C     40  26  11     2.539836917071   104.99766098   223.77628477
 C     26  11  10     2.707061543763   137.60356259   227.26509235
 C     27  26  11     2.613157137953   116.90056228   121.82292907
 C      3   1   2     2.710555080696    70.86784010   182.43572601
 C      8   6   4     2.603299232442   122.30301354     0.20942075
 N      1   2  22     2.561328416380   122.47430976   183.59865853
 C     48   1   2     8.618560061833   134.05267870    32.58497208
 H     49  48   1     2.067674745181    85.21809364   188.61432273
 C     49  48   1     4.104013574291    76.08576315     1.92108603
 C     51  49  48     2.639467832303   158.64923096    33.20096215
 H     52  51  49     2.061361219770   121.58021388   319.86857864
 C     52  51  49     2.611516737830   117.16966790   120.08433764
 H     54  52  51     2.047978437267   118.69461431   192.93554953
 C     54  52  51     2.657602694635   122.02087827     5.23750436
 H     56  54  52     2.064650121654   118.23027195   181.26244083
 H     47   8   6     2.048152800081   119.98450712   173.28460713
 N     49  48   1     2.551970020869    42.31951983   339.73557681
 Zn    59  49  48     3.855087629738   123.74093469   328.97808667
 C     51  49  48     2.724484432061    70.44328447   156.71821004
 C     56  54  52     2.617731147808   121.52091318   348.46880880
 N     49  48   1     2.544753233488   142.91463149    47.51817790
 H     43  40  26     2.053637650879   121.94445508   179.19208945
 C     44  26  11     2.647842828048   120.33001164   285.37440615
 H     65  44  26     2.067761097986   120.90199378   165.03031005
 C     65  44  26     2.621548078031   117.14008364     5.73394119
 H     67  65  44     2.064563638728   118.46610458   160.36932676
 H     45  27  26     2.060668150499   119.18915425   191.97935176
 C     64  43  40     9.275764569048    96.84759885   216.18251928
 C     70  64  43     2.648921543916    68.55295594   151.90914458
 H     71  70  64     2.067502028750   121.35493034     2.82786675
 N     43  40  26     2.549800126744   115.65671504     1.32151062
 N     70  64  43     2.640617588374    62.68921994   323.65359217
 Zn    74  70  64     3.853049175338   133.79147053   338.02849982
 C     74  70  64     2.544963720528   103.88188177   159.42300192
 C     70  64  43     2.700193164787   160.21810061    29.32700210
 C     71  70  64     2.608848887730   117.08472887   200.29402733
 H     62  56  54     2.066292609502   119.00309462   204.98171454
 C     50  49  48     5.848206272174   123.71239359   241.39105589
 C     80  50  49     2.653299317344    90.83206273    67.72352292
 H     81  80  50     2.056765284277   121.11516921   278.83736780
 C     82  81  80     7.648139801734   110.49927092   331.37467831
 C     83  82  81     2.645076610632   116.90202438     0.89233413
 H     84  83  82     2.066292609502   121.91882999    50.59828593
 C     81  80  50     2.625903490332   116.59021020   114.34144168
 H     86  81  80     2.066465427016   118.72950122   181.82785162
 C     84  83  82     2.619367656109   117.16540918   229.87382686
 H     88  84  83     2.060148195535   118.29994591   173.18484509
 N     83  82  81     2.634389388702    44.07832448   122.99702420
 N     80  50  49     2.634321609982    67.36118113   292.92443580
 Zn    91  80  50     3.781105416662   127.46642042    71.37478912
 H     76  74  70     2.057633227635   122.56047800   180.96102940
 C     77  70  64     2.655451877737   121.05896402   116.90986595
 H     94  77  70     2.061274598855   121.75597452   188.73858420
 C     94  77  70     2.619026801207   116.67184240   354.45538511
 H     96  94  77     2.062573530611   119.50491225   192.93332538
 H     78  71  70     2.058327318809   119.06032671   167.03203135
 C     90  83  82     2.543560144577   103.85399452    89.80799791
 H     99  90  83     2.008273052717   122.30216197   182.82446432
 C     83  82  81     2.688064850446   103.82621471   225.00430336
 C    101  83  82     2.648921543916   121.12906186   137.66991826
 H    102 101  83     2.061967464286   122.50414313   183.72541752
 C     93  76  74     5.871364196790   126.40063966   152.13149654
 C    104  93  76     2.635338107741    92.96072715   288.74033383
 H    105 104  93     2.065341854690   120.97367201    95.05574386
 C    102 101  83     2.618003970232   117.01873737   357.63722023
 H    107 102 101     2.064996017136   119.40130595   180.86445199
 C    105 104  93     2.615752334245   116.93476393   258.74743461
 H    109 105 104     2.068710740943   119.02455576   179.58819327
 N     76  74  70     2.554207978018   116.18008229   357.79545723
 N    104  93  76     2.648921543916    70.73852037    61.55413381
 N     99  90  83     2.552389787304   116.15249212     1.34868972
 Zn   112 104  93     3.822155051903   126.15319302   293.11162763

---------------------
BASIS SET INFORMATION
---------------------
There are 4 groups of distinct atoms

 Group   1 Type C   : 11s6p1d contracted to 5s3p1d pattern {62111/411/1}
 Group   2 Type H   : 5s1p contracted to 3s1p pattern {311/1}
 Group   3 Type N   : 11s6p1d contracted to 5s3p1d pattern {62111/411/1}
 Group   4 Type Zn  : 17s11p6d contracted to 6s4p3d pattern {842111/6311/411}

Atom   0C    basis set group =>   1
Atom   1H    basis set group =>   2
Atom   2C    basis set group =>   1
Atom   3C    basis set group =>   1
Atom   4H    basis set group =>   2
Atom   5C    basis set group =>   1
Atom   6H    basis set group =>   2
Atom   7C    basis set group =>   1
Atom   8H    basis set group =>   2
Atom   9C    basis set group =>   1
Atom  10H    basis set group =>   2
Atom  11C    basis set group =>   1
Atom  12C    basis set group =>   1
Atom  13H    basis set group =>   2
Atom  14C    basis set group =>   1
Atom  15C    basis set group =>   1
Atom  16H    basis set group =>   2
Atom  17C    basis set group =>   1
Atom  18H    basis set group =>   2
Atom  19C    basis set group =>   1
Atom  20H    basis set group =>   2
Atom  21N    basis set group =>   3
Atom  22N    basis set group =>   3
Atom  23N    basis set group =>   3
Atom  24Zn   basis set group =>   4
Atom  25C    basis set group =>   1
Atom  26C    basis set group =>   1
Atom  27H    basis set group =>   2
Atom  28C    basis set group =>   1
Atom  29C    basis set group =>   1
Atom  30H    basis set group =>   2
Atom  31C    basis set group =>   1
Atom  32C    basis set group =>   1
Atom  33H    basis set group =>   2
Atom  34C    basis set group =>   1
Atom  35H    basis set group =>   2
Atom  36C    basis set group =>   1
Atom  37H    basis set group =>   2
Atom  38N    basis set group =>   3
Atom  39N    basis set group =>   3
Atom  40N    basis set group =>   3
Atom  41Zn   basis set group =>   4
Atom  42C    basis set group =>   1
Atom  43C    basis set group =>   1
Atom  44C    basis set group =>   1
Atom  45C    basis set group =>   1
Atom  46C    basis set group =>   1
Atom  47N    basis set group =>   3
Atom  48C    basis set group =>   1
Atom  49H    basis set group =>   2
Atom  50C    basis set group =>   1
Atom  51C    basis set group =>   1
Atom  52H    basis set group =>   2
Atom  53C    basis set group =>   1
Atom  54H    basis set group =>   2
Atom  55C    basis set group =>   1
Atom  56H    basis set group =>   2
Atom  57H    basis set group =>   2
Atom  58N    basis set group =>   3
Atom  59Zn   basis set group =>   4
Atom  60C    basis set group =>   1
Atom  61C    basis set group =>   1
Atom  62N    basis set group =>   3
Atom  63H    basis set group =>   2
Atom  64C    basis set group =>   1
Atom  65H    basis set group =>   2
Atom  66C    basis set group =>   1
Atom  67H    basis set group =>   2
Atom  68H    basis set group =>   2
Atom  69C    basis set group =>   1
Atom  70C    basis set group =>   1
Atom  71H    basis set group =>   2
Atom  72N    basis set group =>   3
Atom  73N    basis set group =>   3
Atom  74Zn   basis set group =>   4
Atom  75C    basis set group =>   1
Atom  76C    basis set group =>   1
Atom  77C    basis set group =>   1
Atom  78H    basis set group =>   2
Atom  79C    basis set group =>   1
Atom  80C    basis set group =>   1
Atom  81H    basis set group =>   2
Atom  82C    basis set group =>   1
Atom  83C    basis set group =>   1
Atom  84H    basis set group =>   2
Atom  85C    basis set group =>   1
Atom  86H    basis set group =>   2
Atom  87C    basis set group =>   1
Atom  88H    basis set group =>   2
Atom  89N    basis set group =>   3
Atom  90N    basis set group =>   3
Atom  91Zn   basis set group =>   4
Atom  92H    basis set group =>   2
Atom  93C    basis set group =>   1
Atom  94H    basis set group =>   2
Atom  95C    basis set group =>   1
Atom  96H    basis set group =>   2
Atom  97H    basis set group =>   2
Atom  98C    basis set group =>   1
Atom  99H    basis set group =>   2
Atom 100C    basis set group =>   1
Atom 101C    basis set group =>   1
Atom 102H    basis set group =>   2
Atom 103C    basis set group =>   1
Atom 104C    basis set group =>   1
Atom 105H    basis set group =>   2
Atom 106C    basis set group =>   1
Atom 107H    basis set group =>   2
Atom 108C    basis set group =>   1
Atom 109H    basis set group =>   2
Atom 110N    basis set group =>   3
Atom 111N    basis set group =>   3
Atom 112N    basis set group =>   3
Atom 113Zn   basis set group =>   4
---------------------------------
AUXILIARY/J BASIS SET INFORMATION
---------------------------------
There are 4 groups of distinct atoms

 Group   1 Type C   : 12s5p4d2f1g contracted to 6s4p3d1f1g pattern {711111/2111/211/2/1}
 Group   2 Type H   : 5s2p1d contracted to 3s1p1d pattern {311/2/1}
 Group   3 Type N   : 12s5p4d2f1g contracted to 6s4p3d1f1g pattern {711111/2111/211/2/1}
 Group   4 Type Zn  : 19s5p5d3f3g contracted to 8s5p5d2f3g pattern {121111111/11111/11111/21/111}

Atom   0C    basis set group =>   1
Atom   1H    basis set group =>   2
Atom   2C    basis set group =>   1
Atom   3C    basis set group =>   1
Atom   4H    basis set group =>   2
Atom   5C    basis set group =>   1
Atom   6H    basis set group =>   2
Atom   7C    basis set group =>   1
Atom   8H    basis set group =>   2
Atom   9C    basis set group =>   1
Atom  10H    basis set group =>   2
Atom  11C    basis set group =>   1
Atom  12C    basis set group =>   1
Atom  13H    basis set group =>   2
Atom  14C    basis set group =>   1
Atom  15C    basis set group =>   1
Atom  16H    basis set group =>   2
Atom  17C    basis set group =>   1
Atom  18H    basis set group =>   2
Atom  19C    basis set group =>   1
Atom  20H    basis set group =>   2
Atom  21N    basis set group =>   3
Atom  22N    basis set group =>   3
Atom  23N    basis set group =>   3
Atom  24Zn   basis set group =>   4
Atom  25C    basis set group =>   1
Atom  26C    basis set group =>   1
Atom  27H    basis set group =>   2
Atom  28C    basis set group =>   1
Atom  29C    basis set group =>   1
Atom  30H    basis set group =>   2
Atom  31C    basis set group =>   1
Atom  32C    basis set group =>   1
Atom  33H    basis set group =>   2
Atom  34C    basis set group =>   1
Atom  35H    basis set group =>   2
Atom  36C    basis set group =>   1
Atom  37H    basis set group =>   2
Atom  38N    basis set group =>   3
Atom  39N    basis set group =>   3
Atom  40N    basis set group =>   3
Atom  41Zn   basis set group =>   4
Atom  42C    basis set group =>   1
Atom  43C    basis set group =>   1
Atom  44C    basis set group =>   1
Atom  45C    basis set group =>   1
Atom  46C    basis set group =>   1
Atom  47N    basis set group =>   3
Atom  48C    basis set group =>   1
Atom  49H    basis set group =>   2
Atom  50C    basis set group =>   1
Atom  51C    basis set group =>   1
Atom  52H    basis set group =>   2
Atom  53C    basis set group =>   1
Atom  54H    basis set group =>   2
Atom  55C    basis set group =>   1
Atom  56H    basis set group =>   2
Atom  57H    basis set group =>   2
Atom  58N    basis set group =>   3
Atom  59Zn   basis set group =>   4
Atom  60C    basis set group =>   1
Atom  61C    basis set group =>   1
Atom  62N    basis set group =>   3
Atom  63H    basis set group =>   2
Atom  64C    basis set group =>   1
Atom  65H    basis set group =>   2
Atom  66C    basis set group =>   1
Atom  67H    basis set group =>   2
Atom  68H    basis set group =>   2
Atom  69C    basis set group =>   1
Atom  70C    basis set group =>   1
Atom  71H    basis set group =>   2
Atom  72N    basis set group =>   3
Atom  73N    basis set group =>   3
Atom  74Zn   basis set group =>   4
Atom  75C    basis set group =>   1
Atom  76C    basis set group =>   1
Atom  77C    basis set group =>   1
Atom  78H    basis set group =>   2
Atom  79C    basis set group =>   1
Atom  80C    basis set group =>   1
Atom  81H    basis set group =>   2
Atom  82C    basis set group =>   1
Atom  83C    basis set group =>   1
Atom  84H    basis set group =>   2
Atom  85C    basis set group =>   1
Atom  86H    basis set group =>   2
Atom  87C    basis set group =>   1
Atom  88H    basis set group =>   2
Atom  89N    basis set group =>   3
Atom  90N    basis set group =>   3
Atom  91Zn   basis set group =>   4
Atom  92H    basis set group =>   2
Atom  93C    basis set group =>   1
Atom  94H    basis set group =>   2
Atom  95C    basis set group =>   1
Atom  96H    basis set group =>   2
Atom  97H    basis set group =>   2
Atom  98C    basis set group =>   1
Atom  99H    basis set group =>   2
Atom 100C    basis set group =>   1
Atom 101C    basis set group =>   1
Atom 102H    basis set group =>   2
Atom 103C    basis set group =>   1
Atom 104C    basis set group =>   1
Atom 105H    basis set group =>   2
Atom 106C    basis set group =>   1
Atom 107H    basis set group =>   2
Atom 108C    basis set group =>   1
Atom 109H    basis set group =>   2
Atom 110N    basis set group =>   3
Atom 111N    basis set group =>   3
Atom 112N    basis set group =>   3
Atom 113Zn   basis set group =>   4
------------------------------------------------------------------------------
                           ORCA GTO INTEGRAL CALCULATION
                           -- RI-GTO INTEGRALS CHOSEN --
------------------------------------------------------------------------------
------------------------------------------------------------------------------
                   ___                                                        
                  /   \      - P O W E R E D   B Y -                         
                 /     \                                                     
                 |  |  |   _    _      __       _____    __    __             
                 |  |  |  | |  | |    /  \     |  _  \  |  |  /  |          
                  \  \/   | |  | |   /    \    | | | |  |  | /  /          
                 / \  \   | |__| |  /  /\  \   | |_| |  |  |/  /          
                |  |  |   |  __  | /  /__\  \  |    /   |      \           
                |  |  |   | |  | | |   __   |  |    \   |  |\   \          
                \     /   | |  | | |  |  |  |  | |\  \  |  | \   \       
                 \___/    |_|  |_| |__|  |__|  |_| \__\ |__|  \__/        
                                                                              
                      - O R C A' S   B I G   F R I E N D -                    
                                      &                                       
                       - I N T E G R A L  F E E D E R -                       
                                                                              
 v1 FN, 2020, v2 2021                                                         
------------------------------------------------------------------------------


Reading SHARK input file zif7_lpB.SHARKINP.tmp ... ok
----------------------
SHARK INTEGRAL PACKAGE
----------------------

Number of atoms                             ...    114
Number of basis functions                   ...   1756
Number of shells                            ...    860
Maximum angular momentum                    ...      2
Integral batch strategy                     ... SHARK/LIBINT Hybrid
RI-J (if used) integral strategy            ... SPLIT-RIJ (Revised 2003 algorithm where possible)
Printlevel                                  ...      1
Contraction scheme used                     ... SEGMENTED contraction
Coulomb Range Separation                    ... NOT USED
Exchange Range Separation                   ... NOT USED
Finite Nucleus Model                        ... NOT USED
Auxiliary Coulomb fitting basis             ... AVAILABLE
   # of basis functions in Aux-J            ...   4382
   # of shells in Aux-J                     ...   1378
   Maximum angular momentum in Aux-J        ...      4
Auxiliary J/K fitting basis                 ... NOT available
Auxiliary Correlation fitting basis         ... NOT available
Auxiliary 'external' fitting basis          ... NOT available
Integral threshold                          ...     1.000000e-10
Primitive cut-off                           ...     1.000000e-11
Primitive pair pre-selection threshold      ...     1.000000e-11

Calculating pre-screening integrals         ... done (  3.2 sec) Dimension = 860
Organizing shell pair data                  ... done (  1.2 sec)
Shell pair information
Total number of shell pairs                 ...    370230
Shell pairs after pre-screening             ...    132944
Total number of primitive shell pairs       ...   1434286
Primitive shell pairs kept                  ...    270860
          la=0 lb=0:  43911 shell pairs
          la=1 lb=0:  53033 shell pairs
          la=1 lb=1:  16163 shell pairs
          la=2 lb=0:  11768 shell pairs
          la=2 lb=1:   7366 shell pairs
          la=2 lb=2:    703 shell pairs

Calculating one electron integrals          ... done (  3.1 sec)
Calculating RI/J V-Matrix + Cholesky decomp.... done (  4.1 sec)
Calculating Nuclear repulsion               ... done (  0.0 sec) ENN=  17428.389987971510 Eh

SHARK setup successfully completed in  16.4 seconds

Maximum memory used throughout the entire GTOINT-calculation: 674.6 MB
-------------------------------------------------------------------------------
                                 ORCA SCF
-------------------------------------------------------------------------------

------------
SCF SETTINGS
------------
Hamiltonian:
 Density Functional     Method          .... DFT(GTOs)
 Exchange Functional    Exchange        .... B88
   X-Alpha parameter    XAlpha          ....  0.666667
   Becke's b parameter  XBeta           ....  0.004200
 Correlation Functional Correlation     .... LYP
 LDA part of GGA corr.  LDAOpt          .... VWN-5
 Gradients option       PostSCFGGA      .... off
 Hybrid DFT is turned on
   Fraction HF Exchange ScalHFX         ....  0.200000
   Scaling of DF-GGA-X  ScalDFX         ....  0.720000
   Scaling of DF-GGA-C  ScalDFC         ....  0.810000
   Scaling of DF-LDA-C  ScalLDAC        ....  1.000000
   Perturbative correction              ....  0.000000
   Density functional embedding theory  .... OFF
   NL short-range parameter             ....  4.800000
 RI-approximation to the Coulomb term is turned on
   Number of AuxJ basis functions       .... 4382
   RIJ-COSX (HFX calculated with COS-X)).... on


General Settings:
 Integral files         IntName         .... zif7_lpB
 Hartree-Fock type      HFTyp           .... RHF
 Total Charge           Charge          ....    0
 Multiplicity           Mult            ....    1
 Number of Electrons    NEL             ....  654
 Basis Dimension        Dim             .... 1756
 Nuclear Repulsion      ENuc            ....  17428.3899879715 Eh

Convergence Acceleration:
 DIIS                   CNVDIIS         .... on
   Start iteration      DIISMaxIt       ....    12
   Startup error        DIISStart       ....  0.200000
   # of expansion vecs  DIISMaxEq       ....     5
   Bias factor          DIISBfac        ....   1.050
   Max. coefficient     DIISMaxC        ....  10.000
 Trust-Rad. Augm. Hess. CNVTRAH         .... auto
   Auto Start mean grad. ratio tolernc. ....  1.125000
   Auto Start start iteration           ....    20
   Auto Start num. interpolation iter.  ....    10
   Max. Number of Micro iterations      ....    16
   Max. Number of Macro iterations      .... Maxiter - #DIIS iter
   Number of Davidson start vectors     ....     2
   Converg. threshold I  (grad. norm)   ....   5.000e-05
   Converg. threshold II (energy diff.) ....   1.000e-06
   Grad. Scal. Fac. for Micro threshold ....   0.100
   Minimum threshold for Micro iter.    ....   0.010
   NR start threshold (gradient norm)   ....   0.001
   Initial trust radius                 ....   0.400
   Minimum AH scaling param. (alpha)    ....   1.000
   Maximum AH scaling param. (alpha)    .... 1000.000
   Orbital update algorithm             .... Taylor
   White noise on init. David. guess    .... on
   Maximum white noise                  ....   0.010
   Quad. conv. algorithm                .... NR
 SOSCF                  CNVSOSCF        .... off
 Level Shifting         CNVShift        .... on
   Level shift para.    LevelShift      ....    0.2500
   Turn off err/grad.   ShiftErr        ....    0.0010
 Zerner damping         CNVZerner       .... off
 Static damping         CNVDamp         .... on
   Fraction old density DampFac         ....    0.7000
   Max. Damping (<1)    DampMax         ....    0.9800
   Min. Damping (>=0)   DampMin         ....    0.0000
   Turn off err/grad.   DampErr         ....    0.1000
 Fernandez-Rico         CNVRico         .... off

SCF Procedure:
 Maximum # iterations   MaxIter         ....   125
 SCF integral mode      SCFMode         .... Direct
   Integral package                     .... SHARK and LIBINT hybrid scheme
 Reset frequency        DirectResetFreq ....    20
 Integral Threshold     Thresh          ....  1.000e-10 Eh
 Primitive CutOff       TCut            ....  1.000e-11 Eh

Convergence Tolerance:
 Convergence Check Mode ConvCheckMode   .... Total+1el-Energy
 Convergence forced     ConvForced      .... 0
 Energy Change          TolE            ....  1.000e-06 Eh
 1-El. energy change                    ....  1.000e-03 Eh
 DIIS Error             TolErr          ....  1.000e-06


Diagonalization of the overlap matrix:
Smallest eigenvalue                        ... 1.074e-05
Time for diagonalization                   ...    2.993 sec
Threshold for overlap eigenvalues          ... 1.000e-08
Number of eigenvalues below threshold      ... 0
Time for construction of square roots      ...    1.984 sec
Total time needed                          ...    4.984 sec

Time for model grid setup =   31.096 sec

------------------------------
INITIAL GUESS: MODEL POTENTIAL
------------------------------
Loading Hartree-Fock densities                     ... done
Calculating cut-offs                               ... done
Initializing the effective Hamiltonian             ... done
Setting up the integral package (SHARK)            ... done
Starting the Coulomb interaction                   ... done (  57.7 sec)
Reading the grid                                   ... done
Mapping shells                                     ... done
Starting the XC term evaluation                    ... done (   9.0 sec)
  promolecular density results
     # of electrons  =    653.975626551
     EX              =   -812.858993034
     EC              =    -24.832826528
     EX+EC           =   -837.691819562
Transforming the Hamiltonian                       ... done (   1.8 sec)
Diagonalizing the Hamiltonian                      ... done (   2.9 sec)
Back transforming the eigenvectors                 ... done (   0.9 sec)
Now organizing SCF variables                       ... done
                      ------------------
                      INITIAL GUESS DONE ( 103.7 sec)
                      ------------------
-------------------
DFT GRID GENERATION
-------------------

General Integration Accuracy     IntAcc      ... 4.388
Radial Grid Type                 RadialGrid  ... OptM3 with GC (2021)
Angular Grid (max. ang.)         AngularGrid ... 4 (Lebedev-302)
Angular grid pruning method      GridPruning ... 4 (adaptive)
Weight generation scheme         WeightScheme... Becke
Basis function cutoff            BFCut       ... 1.0000e-10
Integration weight cutoff        WCut        ... 1.0000e-14
Angular grids for H and He will be reduced by one unit
Partially contracted basis set               ... off
Rotationally invariant grid construction     ... off

Total number of grid points                  ...   603166
Total number of batches                      ...     9480
Average number of points per batch           ...       63
Average number of grid points per atom       ...     5291
Time for grid setup =   99.184 sec

--------------------
COSX GRID GENERATION
--------------------

GRIDX 1
-------
General Integration Accuracy     IntAcc      ... 3.816
Radial Grid Type                 RadialGrid  ... OptM3 with GC (2021)
Angular Grid (max. ang.)         AngularGrid ... 1 (Lebedev-50)
Angular grid pruning method      GridPruning ... 4 (adaptive)
Weight generation scheme         WeightScheme... Becke
Basis function cutoff            BFCut       ... 1.0000e-10
Integration weight cutoff        WCut        ... 1.0000e-14
Angular grids for H and He will be reduced by one unit
Partially contracted basis set               ... on
Rotationally invariant grid construction     ... off

Total number of grid points                  ...    74852
Total number of batches                      ...     1220
Average number of points per batch           ...       61
Average number of grid points per atom       ...      657
UseSFitting                                  ... on

GRIDX 2
-------
General Integration Accuracy     IntAcc      ... 4.020
Radial Grid Type                 RadialGrid  ... OptM3 with GC (2021)
Angular Grid (max. ang.)         AngularGrid ... 2 (Lebedev-110)
Angular grid pruning method      GridPruning ... 4 (adaptive)
Weight generation scheme         WeightScheme... Becke
Basis function cutoff            BFCut       ... 1.0000e-10
Integration weight cutoff        WCut        ... 1.0000e-14
Angular grids for H and He will be reduced by one unit
Partially contracted basis set               ... on
Rotationally invariant grid construction     ... off

Total number of grid points                  ...   163221
Total number of batches                      ...     2608
Average number of points per batch           ...       62
Average number of grid points per atom       ...     1432
UseSFitting                                  ... on

GRIDX 3
-------
General Integration Accuracy     IntAcc      ... 4.338
Radial Grid Type                 RadialGrid  ... OptM3 with GC (2021)
Angular Grid (max. ang.)         AngularGrid ... 3 (Lebedev-194)
Angular grid pruning method      GridPruning ... 4 (adaptive)
Weight generation scheme         WeightScheme... Becke
Basis function cutoff            BFCut       ... 1.0000e-10
Integration weight cutoff        WCut        ... 1.0000e-14
Angular grids for H and He will be reduced by one unit
Partially contracted basis set               ... on
Rotationally invariant grid construction     ... off

Total number of grid points                  ...   356401
Total number of batches                      ...     5626
Average number of points per batch           ...       63
Average number of grid points per atom       ...     3126
UseSFitting                                  ... on

Time for X-Grid setup             =  119.481 sec

--------------
SCF ITERATIONS
--------------
ITER       Energy         Delta-E        Max-DP      RMS-DP      [F,P]     Damp
               ***  Starting incremental Fock matrix formation  ***
  0 -13627.7784137145   0.000000000000 0.53413510  0.00233972  0.3777461 0.7000
  1 -13629.2399256993  -1.461511984857 0.35907468  0.00245832  0.1041773 0.7000
                               ***Turning on DIIS***
  2 -13629.6898252483  -0.449899548939 0.60634520  0.00410766  0.0570349 0.0000
  3 -13630.2184793630  -0.528654114747 0.23392768  0.00113362  0.2640954 0.7000
  4 -13630.4220166081  -0.203537245050 0.23905883  0.00113357  0.2266819 0.7000
  5 -13630.5835365497  -0.161519941630 0.19242305  0.00090604  0.1825602 0.7000
  6 -13630.6907584135  -0.107221863813 0.14368833  0.00067492  0.1428024 0.7000
  7 -13630.7615005835  -0.070742170010 0.09153808  0.00046110  0.1100354 0.7000
  8 -13630.8320769750  -0.070576391430 0.20486976  0.00108390  0.0640753 0.0000
  9 -13630.9208405361  -0.088763561182 0.07352706  0.00047663  0.0519618 0.0000
 10 -13630.9497085171  -0.028867980964 0.07369821  0.00048916  0.0273663 0.0000
 11 -13630.9628043709  -0.013095853814 0.08920951  0.00048671  0.0164843 0.0000
 12 -13630.9711672181  -0.008362847217 0.09087353  0.00045195  0.0132284 0.0000
 13 -13630.9768708496  -0.005703631448 0.08018442  0.00040232  0.0126944 0.0000
 14 -13630.9800997626  -0.003228913061 0.03987254  0.00020542  0.0094165 0.0000
 15 -13630.9839637496  -0.003863986982 0.03985206  0.00019715  0.0052500 0.0000
 16 -13630.9865017411  -0.002537991466 0.03775701  0.00019130  0.0023924 0.0000
 17 -13630.9883193528  -0.001817611701 0.03050146  0.00017587  0.0043229 0.0000
 18 -13630.9898907076  -0.001571354798 0.02048519  0.00014839  0.0033454 0.0000
 19 -13630.9911146506  -0.001223943018 0.01871474  0.00014743  0.0036065 0.0000
               *** Restarting incremental Fock matrix formation ***
                                   *** Resetting DIIS ***
 20 -13630.9920714510  -0.000956800432 0.02212291  0.00021148  0.0018966 0.0000
 21 -13630.9930665020  -0.000995050947 0.01633584  0.00012340  0.0029199 0.0000
 22 -13630.9939812855  -0.000914783519 0.01545064  0.00011517  0.0018756 0.0000
 23 -13630.9947789833  -0.000797697763 0.01481814  0.00010793  0.0018750 0.0000

 WARNING: the maximum gradient error descreased on average only by a factor   1.1
          during the last 20 iterations

                      *** Initiating the TRAH-SCF procedure ***


TRAH GRIDX
----------

General Integration Accuracy     IntAcc      ... 3.067
Radial Grid Type                 RadialGrid  ... OptM3 with GC (2021)
Angular Grid (max. ang.)         AngularGrid ... 1 (Lebedev-50)
Angular grid pruning method      GridPruning ... 4 (adaptive)
Weight generation scheme         WeightScheme... Becke
Basis function cutoff            BFCut       ... 1.0000e-10
Integration weight cutoff        WCut        ... 1.0000e-14
Angular grids for H and He will be reduced by one unit
Partially contracted basis set               ... on
Rotationally invariant grid construction     ... off

Total number of grid points                  ...    41220
Total number of batches                      ...      707
Average number of points per batch           ...       58
Average number of grid points per atom       ...      362


TRAH GRID
---------

General Integration Accuracy     IntAcc      ... 3.467
Radial Grid Type                 RadialGrid  ... OptM3 with GC (2021)
Angular Grid (max. ang.)         AngularGrid ... 1 (Lebedev-50)
Angular grid pruning method      GridPruning ... 4 (adaptive)
Weight generation scheme         WeightScheme... Becke
Basis function cutoff            BFCut       ... 1.0000e-10
Integration weight cutoff        WCut        ... 1.0000e-14
Angular grids for H and He will be reduced by one unit
Partially contracted basis set               ... off
Rotationally invariant grid construction     ... off

Total number of grid points                  ...   103509
Total number of batches                      ...     1670
Average number of points per batch           ...       61
Average number of grid points per atom       ...      908

 --------------------------------------------------------------------------------------------
   Iter.        energy            ||Error||_2        Shift      TRadius  Mac/Mic        Rej.
 --------------------------------------------------------------------------------------------
    0     -13630.995738361315     4.307003e-02                     0.400 (TRAH MAcro)   No
WARNING : small    HOMO - LUMO gap : 0.004108
    0     dE    -1.183144e-05     1.480202e-01    -2.3663e-05      0.001 (TRAH MIcro)
    0     dE    -6.966506e-04     2.029788e-01    -1.3863e-03      0.071 (TRAH MIcro)
    0     dE    -3.252523e-03     3.411180e-01    -6.1032e-03      0.257 (TRAH MIcro)
    0     dE    -8.239496e-03     8.612056e-02    -3.9885e-02      0.396 (TRAH MIcro)
    0     dE    -8.776272e-03     5.672857e-02    -4.4929e-02      0.400 (TRAH MIcro)
    0     dE    -9.035276e-03     3.343277e-02    -4.7911e-02      0.400 (TRAH MIcro)
    0     dE    -9.181333e-03     2.318711e-02    -4.9721e-02      0.400 (TRAH MIcro)
    0     dE    -9.247522e-03     1.855175e-02    -5.0532e-02      0.400 (TRAH MIcro)
    0     dE    -9.271131e-03     1.258252e-02    -5.1145e-02      0.399 (TRAH MIcro)
    0     dE    -9.295397e-03     6.739216e-03    -5.1303e-02      0.400 (TRAH MIcro)
    0     dE    -9.299922e-03     4.285744e-03    -5.1449e-02      0.400 (TRAH MIcro)
    1     -13631.001853023736     1.144762e-01                     0.400 (TRAH MAcro)   No
WARNING : small    HOMO - LUMO gap : 0.001671
    1     dE    -8.156191e-04     1.762994e-01    -1.6309e-03      0.014 (TRAH MIcro)
    1     dE    -1.315501e-03     1.212509e-01    -2.6266e-03      0.041 (TRAH MIcro)
    1     dE    -1.921854e-03     3.942212e-02    -3.8266e-03      0.067 (TRAH MIcro)
    1     dE    -2.351503e-03     6.310662e-02    -4.6528e-03      0.104 (TRAH MIcro)
    1     dE    -3.171997e-03     5.922568e-02    -6.0572e-03      0.218 (TRAH MIcro)
    1     dE    -3.525446e-03     3.655106e-02    -6.5583e-03      0.274 (TRAH MIcro)
    1     dE    -3.632780e-03     1.583195e-02    -6.6905e-03      0.293 (TRAH MIcro)
    1     dE    -3.726853e-03     2.666694e-02    -6.7927e-03      0.312 (TRAH MIcro)
    1     dE    -3.831867e-03     1.433437e-02    -6.8837e-03      0.337 (TRAH MIcro)
    1     dE    -3.876885e-03     9.422039e-03    -6.9151e-03      0.348 (TRAH MIcro)
    2     -13631.003582186910     1.134902e-01                     0.400 (TRAH MAcro)   No
WARNING : small    HOMO - LUMO gap : 0.007560
    2     dE    -7.666655e-04     3.448520e-01    -1.5331e-03      0.014 (TRAH MIcro)
    2     dE    -1.040730e-03     2.677718e-01    -2.0799e-03      0.027 (TRAH MIcro)
    2     dE    -1.750343e-03     5.291569e-02    -3.4892e-03      0.057 (TRAH MIcro)
    2     dE    -1.970854e-03     7.488012e-02    -3.9140e-03      0.084 (TRAH MIcro)
    2     dE    -2.156215e-03     6.738470e-02    -4.2583e-03      0.113 (TRAH MIcro)
    2     dE    -2.366171e-03     3.590528e-02    -4.6104e-03      0.163 (TRAH MIcro)
    2     dE    -2.476520e-03     3.175351e-02    -4.7783e-03      0.191 (TRAH MIcro)
    2     dE    -2.526973e-03     2.847287e-02    -4.8501e-03      0.205 (TRAH MIcro)
    2     dE    -2.564156e-03     1.202634e-02    -4.9016e-03      0.215 (TRAH MIcro)
    2     dE    -2.578009e-03     6.703893e-03    -4.9205e-03      0.219 (TRAH MIcro)
    3     -13631.006030801995     7.745837e-02                     0.480 (TRAH MAcro)   No
WARNING : small    HOMO - LUMO gap : 0.007534
    3     dE    -3.572314e-04     9.868974e-02    -7.1440e-04      0.009 (TRAH MIcro)
    3     dE    -4.346280e-04     8.117551e-02    -8.6903e-04      0.016 (TRAH MIcro)
    3     dE    -6.958792e-04     2.726577e-02    -1.3900e-03      0.036 (TRAH MIcro)
    3     dE    -7.799076e-04     2.401196e-02    -1.5563e-03      0.047 (TRAH MIcro)
    3     dE    -8.689315e-04     2.305904e-02    -1.7290e-03      0.072 (TRAH MIcro)
    3     dE    -8.998988e-04     1.235416e-02    -1.7869e-03      0.085 (TRAH MIcro)
    3     dE    -9.146229e-04     9.225281e-03    -1.8132e-03      0.094 (TRAH MIcro)
    3     dE    -9.241744e-04     1.001104e-02    -1.8290e-03      0.103 (TRAH MIcro)
    3     dE    -9.396205e-04     7.881723e-03    -1.8523e-03      0.121 (TRAH MIcro)
    3     dE    -9.509052e-04     8.544087e-03    -1.8675e-03      0.135 (TRAH MIcro)
    3     dE    -9.628030e-04     6.920705e-03    -1.8817e-03      0.153 (TRAH MIcro)
    4     -13631.007041245663     3.310030e-02                     0.576 (TRAH MAcro)   No
WARNING : small    HOMO - LUMO gap : 0.008101
    4     dE    -4.503420e-05     1.450078e-01    -9.0068e-05      0.003 (TRAH MIcro)
    4     dE    -1.032647e-04     7.671278e-02    -2.0650e-04      0.013 (TRAH MIcro)
    4     dE    -1.854254e-04     3.044736e-02    -3.7061e-04      0.025 (TRAH MIcro)
    4     dE    -2.425318e-04     3.602835e-02    -4.8430e-04      0.040 (TRAH MIcro)
    4     dE    -2.897061e-04     1.967163e-02    -5.7727e-04      0.061 (TRAH MIcro)
    4     dE    -3.099336e-04     1.068903e-02    -6.1650e-04      0.074 (TRAH MIcro)
    4     dE    -3.139269e-04     8.416364e-03    -6.2416e-04      0.077 (TRAH MIcro)
    4     dE    -3.163139e-04     4.253442e-03    -6.2870e-04      0.079 (TRAH MIcro)
    4     dE    -3.174402e-04     2.056663e-03    -6.3082e-04      0.080 (TRAH MIcro)
    5     -13631.007390395873     1.125958e-02                     0.691 (TRAH MAcro)   No
WARNING : small    HOMO - LUMO gap : 0.007848
    5     dE    -7.516221e-06     1.860983e-02    -1.5032e-05      0.001 (TRAH MIcro)
    5     dE    -1.097588e-05     1.194319e-02    -2.1952e-05      0.003 (TRAH MIcro)
    5     dE    -1.735429e-05     5.360431e-03    -3.4707e-05      0.007 (TRAH MIcro)
    5     dE    -2.177710e-05     5.961584e-03    -4.3549e-05      0.011 (TRAH MIcro)
    5     dE    -2.481812e-05     3.265164e-03    -4.9624e-05      0.016 (TRAH MIcro)
    5     dE    -2.596136e-05     1.918403e-03    -5.1905e-05      0.018 (TRAH MIcro)
    5     dE    -2.621992e-05     1.238475e-03    -5.2420e-05      0.019 (TRAH MIcro)
    5     dE    -2.634402e-05     1.093299e-03    -5.2667e-05      0.020 (TRAH MIcro)
    6     -13631.007418265783     1.315240e-03                     0.829 (TRAH MAcro)   No
WARNING : small    HOMO - LUMO gap : 0.007815
    6     dE    -6.486387e-09     3.430372e-03    -1.4603e-08      0.000 (TRAH MIcro)
    6     dE    -7.066227e-08     2.114591e-03    -1.4132e-07      0.000 (TRAH MIcro)
    6     dE    -1.307282e-07     1.050756e-03    -2.6146e-07      0.000 (TRAH MIcro)
    6     dE    -2.208609e-07     7.268678e-04    -4.4172e-07      0.001 (TRAH MIcro)
    6     dE    -3.083146e-07     9.044559e-04    -6.1663e-07      0.002 (TRAH MIcro)
    6     dE    -3.236550e-07     5.804725e-04    -6.4731e-07      0.003 (TRAH MIcro)
    6     dE    -3.281924e-07     3.131374e-04    -6.5638e-07      0.003 (TRAH MIcro)
    6     dE    -3.307072e-07     1.003866e-04    -6.6141e-07      0.003 (TRAH MIcro)
    7     -13631.007418590849     1.012070e-04                           (NR   MAcro)
WARNING : small    HOMO - LUMO gap : 0.007813
    7     dE    -5.616461e-10     5.392505e-05                           (NR   MIcro)
    7     dE    -6.710628e-10     4.884870e-05                           (NR   MIcro)
    7     dE    -1.007556e-09     4.319401e-05                           (NR   MIcro)
    7     dE    -1.251065e-09     3.972852e-05                           (NR   MIcro)
    7     dE    -1.366208e-09     2.731468e-05                           (NR   MIcro)
    7     dE    -1.391346e-09     1.688825e-05                           (NR   MIcro)
    7     dE    -1.402622e-09     8.486823e-06                           (NR   MIcro)
    7     dE    -1.409385e-09     5.700660e-06                           (NR   MIcro)
[...]
      py      :     1.012791
      dz2     :     0.028434  d :     0.123144
      dxz     :     0.020725
      dyz     :     0.029439
      dx2y2   :     0.018805
      dxy     :     0.025740
101 C s       :     2.866352  s :     2.866352
      pz      :     1.041047  p :     3.132935
      px      :     1.021136
      py      :     1.070752
      dz2     :     0.018098  d :     0.078169
      dxz     :     0.015822
      dyz     :     0.017224
      dx2y2   :     0.012979
      dxy     :     0.014046
102 H s       :     0.854972  s :     0.854972
      pz      :     0.010123  p :     0.060126
      px      :     0.020508
      py      :     0.029494
103 C s       :     3.070320  s :     3.070320
      pz      :     0.919484  p :     2.743513
      px      :     0.888776
      py      :     0.935254
      dz2     :     0.019920  d :     0.082906
      dxz     :     0.017997
      dyz     :     0.017805
      dx2y2   :     0.010516
      dxy     :     0.016667
104 C s       :     2.898532  s :     2.898532
      pz      :     1.112687  p :     3.267783
      px      :     1.057706
      py      :     1.097390
      dz2     :     0.010578  d :     0.085129
      dxz     :     0.029849
      dyz     :     0.019489
      dx2y2   :     0.009583
      dxy     :     0.015630
105 H s       :     0.846537  s :     0.846537
      pz      :     0.016558  p :     0.066132
      px      :     0.030163
      py      :     0.019411
106 C s       :     2.870198  s :     2.870198
      pz      :     1.036140  p :     3.121746
      px      :     1.016354
      py      :     1.069252
      dz2     :     0.012800  d :     0.078254
      dxz     :     0.010825
      dyz     :     0.020817
      dx2y2   :     0.016824
      dxy     :     0.016987
107 H s       :     0.856756  s :     0.856756
      pz      :     0.025694  p :     0.058691
      px      :     0.023357
      py      :     0.009640
108 C s       :     3.186262  s :     3.186262
      pz      :     0.907912  p :     2.984430
      px      :     1.325058
      py      :     0.751460
      dz2     :     0.009507  d :     0.049037
      dxz     :     0.016553
      dyz     :     0.009980
      dx2y2   :     0.002855
      dxy     :     0.010143
109 H s       :     0.901459  s :     0.901459
      pz      :     0.018876  p :     0.066674
      px      :     0.027019
      py      :     0.020779
110 N s       :     3.199610  s :     3.199610
      pz      :     1.352343  p :     3.988210
      px      :     1.237908
      py      :     1.397960
      dz2     :     0.011826  d :     0.049145
      dxz     :     0.012617
      dyz     :     0.006281
      dx2y2   :     0.007144
      dxy     :     0.011276
111 N s       :     3.472792  s :     3.472792
      pz      :     1.385113  p :     3.897617
      px      :     1.187961
      py      :     1.324543
      dz2     :     0.004472  d :     0.022714
      dxz     :     0.004158
      dyz     :     0.007903
      dx2y2   :     0.003227
      dxy     :     0.002953
112 N s       :     3.195648  s :     3.195648
      pz      :     1.273439  p :     3.979976
      px      :     1.311278
      py      :     1.395259
      dz2     :     0.009167  d :     0.048965
      dxz     :     0.007335
      dyz     :     0.013990
      dx2y2   :     0.007117
      dxy     :     0.011356
113 Zns       :     6.487421  s :     6.487421
      pz      :     4.134882  p :    12.580219
      px      :     4.230991
      py      :     4.214345
      dz2     :     2.002226  d :    10.035784
      dxz     :     2.009784
      dyz     :     1.999318
      dx2y2   :     2.014211
      dxy     :     2.010246


                      *****************************
                      * MAYER POPULATION ANALYSIS *
                      *****************************

  NA   - Mulliken gross atomic population
  ZA   - Total nuclear charge
  QA   - Mulliken gross atomic charge
  VA   - Mayer's total valence
  BVA  - Mayer's bonded valence
  FA   - Mayer's free valence

  ATOM       NA         ZA         QA         VA         BVA        FA
  0 C      6.0476     6.0000    -0.0476     4.0292     4.0292     0.0000
  1 H      0.8312     1.0000     0.1688     0.9991     0.9991     0.0000
  2 C      5.9437     6.0000     0.0563     3.7838     3.7838     0.0000
  3 C      6.2041     6.0000    -0.2041     3.8791     3.8791     0.0000
  4 H      0.9066     1.0000     0.0934     0.9822     0.9822    -0.0000
  5 C      6.1028     6.0000    -0.1028     3.8140     3.8140     0.0000
  6 H      0.8695     1.0000     0.1305     0.9611     0.9611    -0.0000
  7 C      6.1437     6.0000    -0.1437     3.8841     3.8841    -0.0000
  8 H      0.8523     1.0000     0.1477     0.9620     0.9620     0.0000
  9 C      6.0696     6.0000    -0.0696     4.0476     4.0476    -0.0000
 10 H      0.8261     1.0000     0.1739     0.9682     0.9682    -0.0000
 11 C      5.9450     6.0000     0.0550     3.8574     3.8574     0.0000
 12 C      6.1428     6.0000    -0.1428     3.9160     3.9160     0.0000
 13 H      0.8874     1.0000     0.1126     0.9850     0.9850    -0.0000
 14 C      5.7807     6.0000     0.2193     3.3878     3.3878    -0.0000
 15 C      6.4286     6.0000    -0.4286     3.9048     3.9048    -0.0000
 16 H      0.8511     1.0000     0.1489     0.9290     0.9290    -0.0000
 17 C      6.1182     6.0000    -0.1182     3.8830     3.8830     0.0000
 18 H      0.8788     1.0000     0.1212     0.9646     0.9646     0.0000
 19 C      6.2596     6.0000    -0.2596     2.8345     2.8345    -0.0000
 20 H      0.9333     1.0000     0.0667     0.9118     0.9118     0.0000
 21 N      7.1590     7.0000    -0.1590     3.1131     3.1131     0.0000
 22 N      7.3464     7.0000    -0.3464     2.9511     2.9511     0.0000
 23 N      7.1945     7.0000    -0.1945     3.0798     3.0798    -0.0000
 24 Zn    29.3311    30.0000     0.6689     2.0652     2.0652     0.0000
 25 C      5.9598     6.0000     0.0402     3.8087     3.8087    -0.0000
 26 C      6.1574     6.0000    -0.1574     3.8478     3.8478     0.0000
 27 H      0.9074     1.0000     0.0926     0.9821     0.9821     0.0000
 28 C      5.7970     6.0000     0.2030     3.4444     3.4444     0.0000
 29 C      6.3745     6.0000    -0.3745     3.8559     3.8559    -0.0000
 30 H      0.8172     1.0000     0.1828     0.9278     0.9278     0.0000
 31 C      5.9340     6.0000     0.0660     3.8500     3.8500     0.0000
 32 C      6.1566     6.0000    -0.1566     3.8904     3.8904     0.0000
 33 H      0.9035     1.0000     0.0965     0.9948     0.9948     0.0000
 34 C      6.2612     6.0000    -0.2612     2.8315     2.8315    -0.0000
 35 H      0.9200     1.0000     0.0800     0.9261     0.9261    -0.0000
 36 C      6.0913     6.0000    -0.0913     3.8258     3.8258     0.0000
 37 H      0.8712     1.0000     0.1288     0.9597     0.9597     0.0000
 38 N      7.2002     7.0000    -0.2002     3.0453     3.0453    -0.0000
 39 N      7.1658     7.0000    -0.1658     3.1271     3.1271    -0.0000
 40 N      7.3706     7.0000    -0.3706     2.9572     2.9572     0.0000
 41 Zn    29.2936    30.0000     0.7064     2.0319     2.0319    -0.0000
 42 C      6.0174     6.0000    -0.0174     4.0324     4.0324    -0.0000
 43 C      5.9128     6.0000     0.0872     3.7466     3.7466    -0.0000
 44 C      6.1228     6.0000    -0.1228     3.8750     3.8750    -0.0000
 45 C      5.9098     6.0000     0.0902     3.7143     3.7143     0.0000
 46 C      6.1508     6.0000    -0.1508     3.9043     3.9043    -0.0000
 47 N      7.1795     7.0000    -0.1795     3.0756     3.0756    -0.0000
 48 C      6.0254     6.0000    -0.0254     4.0341     4.0341    -0.0000
 49 H      0.8351     1.0000     0.1649     0.9976     0.9976     0.0000
 50 C      5.9300     6.0000     0.0700     3.7582     3.7582    -0.0000
 51 C      6.1315     6.0000    -0.1315     3.8672     3.8672    -0.0000
 52 H      0.8629     1.0000     0.1371     0.9516     0.9516    -0.0000
 53 C      6.1385     6.0000    -0.1385     3.9414     3.9414     0.0000
 54 H      0.8413     1.0000     0.1587     0.9643     0.9643    -0.0000
 55 C      6.1521     6.0000    -0.1521     3.9084     3.9084     0.0000
 56 H      0.8860     1.0000     0.1140     0.9720     0.9720     0.0000
 57 H      0.8672     1.0000     0.1328     0.9628     0.9628    -0.0000
 58 N      7.1966     7.0000    -0.1966     3.0969     3.0969     0.0000
 59 Zn    29.6814    30.0000     0.3186     1.7686     1.7686    -0.0000
 60 C      5.9530     6.0000     0.0470     3.8056     3.8056    -0.0000
 61 C      6.1303     6.0000    -0.1303     3.8166     3.8166    -0.0000
 62 N      7.1802     7.0000    -0.1802     3.1125     3.1125    -0.0000
 63 H      0.8420     1.0000     0.1580     1.0015     1.0015     0.0000
 64 C      6.1668     6.0000    -0.1668     3.9004     3.9004     0.0000
 65 H      0.8752     1.0000     0.1248     0.9686     0.9686    -0.0000
 66 C      6.1231     6.0000    -0.1231     3.8967     3.8967    -0.0000
 67 H      0.8424     1.0000     0.1576     0.9656     0.9656    -0.0000
 68 H      0.8808     1.0000     0.1192     0.9704     0.9704    -0.0000
 69 C      5.9515     6.0000     0.0485     3.7852     3.7852    -0.0000
 70 C      6.1065     6.0000    -0.1065     3.8673     3.8673    -0.0000
 71 H      0.8562     1.0000     0.1438     0.9557     0.9557    -0.0000
 72 N      7.1945     7.0000    -0.1945     3.0851     3.0851    -0.0000
 73 N      7.1925     7.0000    -0.1925     3.0876     3.0876     0.0000
 74 Zn    29.6796    30.0000     0.3204     1.7645     1.7645    -0.0000
 75 C      6.0196     6.0000    -0.0196     4.0308     4.0308     0.0000
 76 C      5.9389     6.0000     0.0611     3.8088     3.8088     0.0000
 77 C      6.1666     6.0000    -0.1666     3.9571     3.9571     0.0000
 78 H      0.9028     1.0000     0.0972     0.9787     0.9787    -0.0000
 79 C      5.7798     6.0000     0.2202     3.3943     3.3943     0.0000
 80 C      6.3923     6.0000    -0.3923     3.8951     3.8951     0.0000
 81 H      0.8603     1.0000     0.1397     0.9366     0.9366     0.0000
 82 C      5.9582     6.0000     0.0418     3.9068     3.9068     0.0000
 83 C      6.1324     6.0000    -0.1324     3.8560     3.8560     0.0000
 84 H      0.8935     1.0000     0.1065     0.9910     0.9910     0.0000
 85 C      6.2644     6.0000    -0.2644     2.8333     2.8333    -0.0000
 86 H      0.9297     1.0000     0.0703     0.9184     0.9184     0.0000
 87 C      6.1114     6.0000    -0.1114     3.8723     3.8723     0.0000
 88 H      0.8756     1.0000     0.1244     0.9618     0.9618     0.0000
 89 N      7.1659     7.0000    -0.1659     3.0724     3.0724     0.0000
 90 N      7.3540     7.0000    -0.3540     2.9441     2.9441     0.0000
 91 Zn    29.2997    30.0000     0.7003     2.0376     2.0376     0.0000
 92 H      0.8415     1.0000     0.1585     1.0023     1.0023     0.0000
 93 C      6.1858     6.0000    -0.1858     3.8697     3.8697     0.0000
 94 H      0.9087     1.0000     0.0913     0.9820     0.9820     0.0000
 95 C      6.0979     6.0000    -0.0979     3.8511     3.8511     0.0000
 96 H      0.8778     1.0000     0.1222     0.9639     0.9639     0.0000
 97 H      0.8604     1.0000     0.1396     0.9685     0.9685     0.0000
 98 C      6.0791     6.0000    -0.0791     4.0425     4.0425     0.0000
 99 H      0.8427     1.0000     0.1573     0.9858     0.9858     0.0000
100 C      5.9788     6.0000     0.0212     3.9259     3.9259     0.0000
101 C      6.1392     6.0000    -0.1392     3.8731     3.8731     0.0000
102 H      0.8713     1.0000     0.1287     0.9876     0.9876     0.0000
103 C      5.8062     6.0000     0.1938     3.4336     3.4336     0.0000
104 C      6.3926     6.0000    -0.3926     3.8922     3.8922     0.0000
105 H      0.8298     1.0000     0.1702     0.9136     0.9136     0.0000
106 C      6.1134     6.0000    -0.1134     3.9223     3.9223     0.0000
107 H      0.8804     1.0000     0.1196     0.9660     0.9660     0.0000
108 C      6.2483     6.0000    -0.2483     2.8508     2.8508     0.0000
109 H      0.9327     1.0000     0.0673     0.9313     0.9313    -0.0000
110 N      7.1655     7.0000    -0.1655     3.0820     3.0820     0.0000
111 N      7.3509     7.0000    -0.3509     2.9424     2.9424    -0.0000
112 N      7.1744     7.0000    -0.1744     3.0748     3.0748    -0.0000
113 Zn    29.3275    30.0000     0.6725     2.0478     2.0478    -0.0000

  Mayer bond orders larger than 0.100000
B(  0-C ,  1-H ) :   0.9328 B(  0-C , 21-N ) :   1.4080 B(  0-C , 47-N ) :   1.4253 
B(  2-C ,  3-C ) :   1.2891 B(  2-C , 21-N ) :   1.1468 B(  2-C , 45-C ) :   1.3162 
B(  3-C ,  4-H ) :   0.9783 B(  3-C ,  5-C ) :   1.4844 B(  5-C ,  6-H ) :   0.9477 
B(  5-C ,  7-C ) :   1.3387 B(  7-C ,  8-H ) :   0.9497 B(  7-C , 46-C ) :   1.5282 
B(  9-C , 10-H ) :   0.9403 B(  9-C , 23-N ) :   1.4407 B(  9-C , 38-N ) :   1.4121 
B( 11-C , 12-C ) :   1.3222 B( 11-C , 23-N ) :   1.0928 B( 11-C , 31-C ) :   1.4011 
B( 11-C , 38-N ) :  -0.1024 B( 12-C , 13-H ) :   0.9265 B( 12-C , 17-C ) :   1.5051 
B( 14-C , 15-C ) :   1.1653 B( 14-C , 22-N ) :   2.0483 B( 15-C , 16-H ) :   0.8874 
B( 15-C , 19-C ) :   1.6842 B( 15-C , 22-N ) :   0.1114 B( 17-C , 18-H ) :   0.9560 
B( 17-C , 36-C ) :   1.3517 B( 19-C , 20-H ) :   0.8590 B( 19-C , 22-N ) :   0.1411 
B( 21-N , 24-Zn) :   0.5669 B( 22-N , 24-Zn) :   0.5465 B( 23-N , 24-Zn) :   0.5393 
B( 25-C , 26-C ) :   1.2910 B( 25-C , 39-N ) :   1.1279 B( 25-C , 43-C ) :   1.3432 
B( 26-C , 27-H ) :   0.9601 B( 26-C , 44-C ) :   1.4872 B( 28-C , 29-C ) :   1.2056 
B( 28-C , 40-N ) :   2.0902 B( 29-C , 30-H ) :   0.8904 B( 29-C , 34-C ) :   1.6341 
B( 31-C , 32-C ) :   1.3068 B( 31-C , 38-N ) :   1.0918 B( 32-C , 33-H ) :   0.9566 
B( 32-C , 36-C ) :   1.4795 B( 34-C , 35-H ) :   0.8889 B( 34-C , 40-N ) :   0.1495 
B( 36-C , 37-H ) :   0.9514 B( 38-N , 41-Zn) :   0.5561 B( 39-N , 41-Zn) :   0.5789 
B( 39-N , 42-C ) :   1.4244 B( 40-N , 41-Zn) :   0.5614 B( 42-C , 63-H ) :   0.9355 
B( 42-C , 72-N ) :   1.4362 B( 43-C , 64-C ) :   1.2896 B( 43-C , 72-N ) :   1.1481 
B( 44-C , 66-C ) :   1.3662 B( 44-C , 68-H ) :   0.9507 B( 45-C , 46-C ) :   1.2804 
B( 45-C , 47-N ) :   1.1556 B( 46-C , 57-H ) :   0.9661 B( 47-N , 59-Zn) :   0.4226 
B( 48-C , 49-H ) :   0.9340 B( 48-C , 58-N ) :   1.4368 B( 48-C , 62-N ) :   1.4154 
B( 50-C , 51-C ) :   1.2882 B( 50-C , 58-N ) :   1.1504 B( 50-C , 60-C ) :   1.3454 
B( 51-C , 52-H ) :   0.9515 B( 51-C , 53-C ) :   1.5412 B( 53-C , 54-H ) :   0.9297 
B( 53-C , 55-C ) :   1.3745 B( 55-C , 56-H ) :   0.9641 B( 55-C , 61-C ) :   1.4745 
B( 58-N , 59-Zn) :   0.4315 B( 59-Zn, 74-Zn) :   0.6336 B( 60-C , 61-C ) :   1.3083 
B( 60-C , 62-N ) :   1.1032 B( 61-C , 78-H ) :   0.9514 B( 62-N , 91-Zn) :   0.5877 
B( 64-C , 65-H ) :   0.9691 B( 64-C , 66-C ) :   1.5256 B( 66-C , 67-H ) :   0.9353 
B( 69-C , 70-C ) :   1.3030 B( 69-C , 73-N ) :   1.1420 B( 69-C , 76-C ) :   1.3625 
B( 70-C , 71-H ) :   0.9368 B( 70-C , 77-C ) :   1.5352 B( 72-N , 74-Zn) :   0.4251 
B( 73-N , 74-Zn) :   0.4355 B( 73-N , 75-C ) :   1.4358 B( 75-C , 92-H ) :   0.9346 
B( 75-C ,110-N ) :   1.4181 B( 76-C , 93-C ) :   1.3114 B( 76-C ,110-N ) :   1.1194 
B( 77-C , 95-C ) :   1.3653 B( 77-C , 97-H ) :   0.9507 B( 79-C , 80-C ) :   1.1768 
B( 79-C , 90-N ) :   2.0674 B( 80-C , 81-H ) :   0.8915 B( 80-C , 85-C ) :   1.6790 
B( 80-C , 90-N ) :   0.1117 B( 82-C , 83-C ) :   1.3357 B( 82-C , 89-N ) :   1.1171 
B( 82-C ,100-C ) :   1.4178 B( 82-C ,112-N ) :  -0.1040 B( 83-C , 84-H ) :   0.9353 
B( 83-C , 87-C ) :   1.4693 B( 85-C , 86-H ) :   0.8750 B( 85-C , 90-N ) :   0.1420 
B( 87-C , 88-H ) :   0.9592 B( 87-C ,106-C ) :   1.3766 B( 89-N , 91-Zn) :   0.5453 
B( 89-N , 98-C ) :   1.4187 B( 89-N ,100-C ) :  -0.1019 B( 90-N , 91-Zn) :   0.5435 
B( 93-C , 94-H ) :   0.9605 B( 93-C , 95-C ) :   1.4807 B( 95-C , 96-H ) :   0.9500 
B( 98-C , 99-H ) :   0.9565 B( 98-C ,112-N ) :   1.4193 B(100-C ,101-C ) :   1.3424 
B(100-C ,112-N ) :   1.1208 B(101-C ,102-H ) :   0.8878 B(101-C ,106-C ) :   1.5060 
B(103-C ,104-C ) :   1.1966 B(103-C ,111-N ) :   2.0782 B(104-C ,105-H ) :   0.8827 
B(104-C ,108-C ) :   1.6725 B(104-C ,111-N ) :   0.1003 B(106-C ,107-H ) :   0.9589 
B(108-C ,109-H ) :   0.8799 B(108-C ,111-N ) :   0.1410 B(110-N ,113-Zn) :   0.5526 
B(111-N ,113-Zn) :   0.5418 B(112-N ,113-Zn) :   0.5354 

-------
TIMINGS
-------

Total SCF time: 0 days 16 hours 9 min 28 sec 

Total time                  ....   58168.853 sec
Sum of individual times     ....   58023.708 sec  ( 99.8%)

Fock matrix formation       ....   57272.383 sec  ( 98.5%)
  Split-RI-J                ....   11981.430 sec  ( 20.9% of F)
  Chain of spheres X        ....   43532.080 sec  ( 76.0% of F)
  XC integration            ....    1696.530 sec  (  3.0% of F)
    Basis function eval.    ....     446.622 sec  ( 26.3% of XC)
    Density eval.           ....     668.966 sec  ( 39.4% of XC)
    XC-Functional eval.     ....      36.406 sec  (  2.1% of XC)
    XC-Potential eval.      ....     400.537 sec  ( 23.6% of XC)
Diagonalization             ....     146.087 sec  (  0.3%)
Density matrix formation    ....      26.339 sec  (  0.0%)
Population analysis         ....       4.320 sec  (  0.0%)
Initial guess               ....      72.652 sec  (  0.1%)
Orbital Transformation      ....     180.049 sec  (  0.3%)
Orbital Orthonormalization  ....       0.000 sec  (  0.0%)
DIIS solution               ....      72.097 sec  (  0.1%)
Grid generation             ....     249.761 sec  (  0.4%)

Maximum memory used throughout the entire SCF-calculation: 1241.9 MB

-------------------------   --------------------
FINAL SINGLE POINT ENERGY    -13631.007404495904
-------------------------   --------------------


                            ***************************************
                            *     ORCA property calculations      *
                            ***************************************

                                    ---------------------
                                    Active property flags
                                    ---------------------
   (+) Dipole Moment


------------------------------------------------------------------------------
                       ORCA ELECTRIC PROPERTIES CALCULATION
------------------------------------------------------------------------------

Dipole Moment Calculation                       ... on
Quadrupole Moment Calculation                   ... off
Polarizability Calculation                      ... off
GBWName                                         ... zif7_lpB.gbw
Electron density                                ... zif7_lpB.scfp
The origin for moment calculation is the CENTER OF MASS  = (76.031204, 43.836107 19.836232)

-------------
DIPOLE MOMENT
-------------
                                X             Y             Z
Electronic contribution:      0.76199       0.00662      -0.35954
Nuclear contribution   :     -0.78058      -0.19483       0.45196
                        -----------------------------------------
Total Dipole Moment    :     -0.01858      -0.18820       0.09242
                        -----------------------------------------
Magnitude (a.u.)       :      0.21049
Magnitude (Debye)      :      0.53503



--------------------
Rotational spectrum 
--------------------
 
Rotational constants in cm-1:     0.000840     0.000495     0.000390 
Rotational constants in MHz :    25.189762    14.844712    11.700329 

 Dipole components along the rotational axes: 
x,y,z [a.u.] :     0.117190    -0.159222     0.072262 
x,y,z [Debye]:     0.297874    -0.404711     0.183675 

 

Timings for individual modules:

Sum of individual times         ...    58185.852 sec (= 969.764 min)
GTO integral calculation        ...       16.710 sec (=   0.279 min)   0.0 %
SCF iterations                  ...    58169.141 sec (= 969.486 min) 100.0 %
                             ****ORCA TERMINATED NORMALLY****
TOTAL RUN TIME: 0 days 16 hours 9 minutes 49 seconds 501 msec
