Sat Dec 23 17:48:50 +07 2023
cn214

                                 *****************
                                 * O   R   C   A *
                                 *****************

                                            #,                                       
                                            ###                                      
                                            ####                                     
                                            #####                                    
                                            ######                                   
                                           ########,                                 
                                     ,,################,,,,,                         
                               ,,#################################,,                 
                          ,,##########################################,,             
                       ,#########################################, ''#####,          
                    ,#############################################,,   '####,        
                  ,##################################################,,,,####,       
                ,###########''''           ''''###############################       
              ,#####''   ,,,,##########,,,,          '''####'''          '####       
            ,##' ,,,,###########################,,,                        '##       
           ' ,,###''''                  '''############,,,                           
         ,,##''                                '''############,,,,        ,,,,,,###''
      ,#''                                            '''#######################'''  
     '                                                          ''''####''''         
             ,#######,   #######,   ,#######,      ##                                
            ,#'     '#,  ##    ##  ,#'     '#,    #''#        ######   ,####,        
            ##       ##  ##   ,#'  ##            #'  '#       #        #'  '#        
            ##       ##  #######   ##           ,######,      #####,   #    #        
            '#,     ,#'  ##    ##  '#,     ,#' ,#      #,         ##   #,  ,#        
             '#######'   ##     ##  '#######'  #'      '#     #####' # '####'        



                  #######################################################
                  #                        -***-                        #
                  #          Department of theory and spectroscopy      #
                  #    Directorship and core code : Frank Neese         #
                  #        Max Planck Institute fuer Kohlenforschung    #
                  #                Kaiser Wilhelm Platz 1               #
                  #                 D-45470 Muelheim/Ruhr               #
                  #                      Germany                        #
                  #                                                     #
                  #                  All rights reserved                #
                  #                        -***-                        #
                  #######################################################


                         Program Version 5.0.3 -  RELEASE  -


 With contributions from (in alphabetic order):
   Daniel Aravena         : Magnetic Suceptibility
   Michael Atanasov       : Ab Initio Ligand Field Theory (pilot matlab implementation)
   Alexander A. Auer      : GIAO ZORA, VPT2 properties, NMR spectrum
   Ute Becker             : Parallelization
   Giovanni Bistoni       : ED, misc. LED, open-shell LED, HFLD
   Martin Brehm           : Molecular dynamics
   Dmytro Bykov           : SCF Hessian
   Vijay G. Chilkuri      : MRCI spin determinant printing, contributions to CSF-ICE
   Dipayan Datta          : RHF DLPNO-CCSD density
   Achintya Kumar Dutta   : EOM-CC, STEOM-CC
   Dmitry Ganyushin       : Spin-Orbit,Spin-Spin,Magnetic field MRCI
   Miquel Garcia          : C-PCM and meta-GGA Hessian, CC/C-PCM, Gaussian charge scheme
   Yang Guo               : DLPNO-NEVPT2, F12-NEVPT2, CIM, IAO-localization
   Andreas Hansen         : Spin unrestricted coupled pair/coupled cluster methods
   Benjamin Helmich-Paris : MC-RPA, TRAH-SCF, COSX integrals
   Lee Huntington         : MR-EOM, pCC
   Robert Izsak           : Overlap fitted RIJCOSX, COSX-SCS-MP3, EOM
   Marcus Kettner         : VPT2
   Christian Kollmar      : KDIIS, OOCD, Brueckner-CCSD(T), CCSD density, CASPT2, CASPT2-K
   Simone Kossmann        : Meta GGA functionals, TD-DFT gradient, OOMP2, MP2 Hessian
   Martin Krupicka        : Initial AUTO-CI
   Lucas Lang             : DCDCAS
   Marvin Lechner         : AUTO-CI (C++ implementation), FIC-MRCC
   Dagmar Lenk            : GEPOL surface, SMD
   Dimitrios Liakos       : Extrapolation schemes; Compound Job, initial MDCI parallelization
   Dimitrios Manganas     : Further ROCIS development; embedding schemes
   Dimitrios Pantazis     : SARC Basis sets
   Anastasios Papadopoulos: AUTO-CI, single reference methods and gradients
   Taras Petrenko         : DFT Hessian,TD-DFT gradient, ASA, ECA, R-Raman, ABS, FL, XAS/XES, NRVS
   Peter Pinski           : DLPNO-MP2, DLPNO-MP2 Gradient
   Christoph Reimann      : Effective Core Potentials
   Marius Retegan         : Local ZFS, SOC
   Christoph Riplinger    : Optimizer, TS searches, QM/MM, DLPNO-CCSD(T), (RO)-DLPNO pert. Triples
   Tobias Risthaus        : Range-separated hybrids, TD-DFT gradient, RPA, STAB
   Michael Roemelt        : Original ROCIS implementation
   Masaaki Saitow         : Open-shell DLPNO-CCSD energy and density
   Barbara Sandhoefer     : DKH picture change effects
   Avijit Sen             : IP-ROCIS
   Kantharuban Sivalingam : CASSCF convergence, NEVPT2, FIC-MRCI
   Bernardo de Souza      : ESD, SOC TD-DFT
   Georgi Stoychev        : AutoAux, RI-MP2 NMR, DLPNO-MP2 response
   Willem Van den Heuvel  : Paramagnetic NMR
   Boris Wezisla          : Elementary symmetry handling
   Frank Wennmohs         : Technical directorship


 We gratefully acknowledge several colleagues who have allowed us to
 interface, adapt or use parts of their codes:
   Stefan Grimme, W. Hujo, H. Kruse, P. Pracht,  : VdW corrections, initial TS optimization,
                  C. Bannwarth, S. Ehlert          DFT functionals, gCP, sTDA/sTD-DF
   Ed Valeev, F. Pavosevic, A. Kumar             : LibInt (2-el integral package), F12 methods
   Garnet Chan, S. Sharma, J. Yang, R. Olivares  : DMRG
   Ulf Ekstrom                                   : XCFun DFT Library
   Mihaly Kallay                                 : mrcc  (arbitrary order and MRCC methods)
   Jiri Pittner, Ondrej Demel                    : Mk-CCSD
   Frank Weinhold                                : gennbo (NPA and NBO analysis)
   Christopher J. Cramer and Donald G. Truhlar   : smd solvation model
   Lars Goerigk                                  : TD-DFT with DH, B97 family of functionals
   V. Asgeirsson, H. Jonsson                     : NEB implementation
   FAccTs GmbH                                   : IRC, NEB, NEB-TS, DLPNO-Multilevel, CI-OPT
                                                   MM, QMMM, 2- and 3-layer-ONIOM, Crystal-QMMM,
                                                   LR-CPCM, SF, NACMEs, symmetry and pop. for TD-DFT,
                                                   nearIR, NL-DFT gradient (VV10), updates on ESD,
                                                   ML-optimized integration grids
   S Lehtola, MJT Oliveira, MAL Marques          : LibXC Library
   Liviu Ungur et al                             : ANISO software


 Your calculation uses the libint2 library for the computation of 2-el integrals
 For citations please refer to: http://libint.valeyev.net

 Your ORCA version has been built with support for libXC version: 5.1.0
 For citations please refer to: https://tddft.org/programs/libxc/

 This ORCA versions uses:
   CBLAS   interface :  Fast vector & matrix operations
   LAPACKE interface :  Fast linear algebra routines
   SCALAPACK package :  Parallel linear algebra routines
   Shared memory     :  Shared parallel matrices
   BLAS/LAPACK       :  OpenBLAS 0.3.15  USE64BITINT DYNAMIC_ARCH NO_AFFINITY Nehalem SINGLE_THREADED
        Core in use  :  Nehalem
   Copyright (c) 2011-2014, The OpenBLAS Project


================================================================================

----- Orbital basis set information -----
Your calculation utilizes the basis: TZVP 

----- AuxJ basis set information -----
Your calculation utilizes the auxiliary basis: def2/J
   F. Weigend, Phys. Chem. Chem. Phys. 8, 1057 (2006).

================================================================================
                                        WARNINGS
                       Please study these warnings very carefully!
================================================================================


WARNING: your system is open-shell and RHF/RKS was chosen
  ===> : WILL SWITCH to UHF/UKS


INFO   : the flag for use of the SHARK integral package has been found!

================================================================================
                                       INPUT FILE
================================================================================
NAME = zif7_tempo_lpA.inp
|  1> ! DFT B3LYP TZVP def2/J RIJCOSX
|  2> %maxcore 8000
|  3> 
|  4> * xyz 0 2
|  5>   C       34.610000000     27.730000000     26.070000000
|  6>   H       34.680000000     27.270000000     25.090000000
|  7>   C       35.180000000     28.540000000     28.000000000
|  8>   C       35.820000000     29.050000000     29.140000000
|  9>   H       36.880000000     29.300000000     29.130000000
| 10>   C       38.130000000     30.250000000     24.620000000
| 11>   C       37.280000000     29.840000000     23.590000000
| 12>   H       36.600000000     28.990000000     23.720000000
| 13>   C       35.010000000     29.540000000     30.140000000
| 14>   H       35.480000000     30.070000000     30.970000000
| 15>   C       37.040000000     30.750000000     22.580000000
| 16>   H       36.150000000     30.620000000     21.980000000
| 17>   N       38.440000000     29.660000000     25.830000000
| 18>   N       35.700000000     28.000000000     26.830000000
| 19>   Zn      37.670000000     27.880000000     26.400000000
| 20>   C       29.770000000     30.350000000     26.420000000
| 21>   H       29.380000000     30.090000000     27.400000000
| 22>   C       30.900000000     30.260000000     24.570000000
| 23>   C       31.820000000     30.000000000     23.540000000
| 24>   H       32.550000000     29.200000000     23.610000000
| 25>   C       33.770000000     28.570000000     27.880000000
| 26>   C       32.980000000     29.180000000     28.850000000
| 27>   H       31.930000000     29.430000000     28.670000000
| 28>   C       31.920000000     30.950000000     22.540000000
| 29>   H       32.670000000     30.820000000     21.760000000
| 30>   C       33.620000000     29.650000000     29.970000000
| 31>   H       33.080000000     30.370000000     30.590000000
| 32>   N       33.420000000     28.020000000     26.660000000
| 33>   N       30.650000000     29.570000000     25.740000000
| 34>   Zn      31.480000000     27.780000000     26.150000000
| 35>   C       39.260000000     30.550000000     26.440000000
| 36>   H       39.700000000     30.370000000     27.420000000
| 37>   C       38.800000000     31.500000000     24.550000000
| 38>   C       38.680000000     32.320000000     23.420000000
| 39>   H       38.980000000     33.370000000     23.460000000
| 40>   C       38.810000000     34.880000000     27.850000000
| 41>   C       38.710000000     33.900000000     28.830000000
| 42>   H       38.910000000     32.850000000     28.610000000
| 43>   C       37.830000000     31.900000000     22.420000000
| 44>   H       37.580000000     32.590000000     21.620000000
| 45>   C       38.090000000     34.260000000     30.010000000
| 46>   H       37.730000000     33.440000000     30.630000000
| 47>   N       39.530000000     34.900000000     26.670000000
| 48>   N       39.560000000     31.640000000     25.700000000
| 49>   Zn      40.640000000     33.290000000     26.140000000
| 50>   C       39.130000000     36.030000000     26.060000000
| 51>   H       39.510000000     36.330000000     25.080000000
| 52>   C       38.100000000     36.090000000     27.960000000
| 53>   C       37.410000000     36.420000000     29.130000000
| 54>   H       36.650000000     37.210000000     29.150000000
| 55>   C       35.100000000     37.820000000     24.640000000
| 56>   C       35.850000000     37.400000000     23.550000000
| 57>   H       36.930000000     37.230000000     23.630000000
| 58>   C       37.500000000     35.530000000     30.180000000
| 59>   H       36.830000000     35.670000000     31.030000000
| 60>   C       35.160000000     36.820000000     22.500000000
| 61>   H       35.730000000     36.170000000     21.850000000
| 62>   N       35.500000000     38.400000000     25.840000000
| 63>   N       38.310000000     36.820000000     26.790000000
| 64>   Zn      37.450000000     38.600000000     26.380000000
| 65>   C       29.570000000     35.850000000     26.230000000
| 66>   H       29.140000000     36.010000000     25.240000000
| 67>   C       30.010000000     34.960000000     28.160000000
| 68>   C       30.190000000     34.120000000     29.280000000
| 69>   H       29.770000000     33.110000000     29.300000000
| 70>   C       30.080000000     31.420000000     24.550000000
| 71>   C       30.220000000     32.380000000     23.550000000
| 72>   H       29.800000000     33.380000000     23.650000000
| 73>   C       31.220000000     34.440000000     30.140000000
| 74>   H       31.490000000     33.740000000     30.930000000
| 75>   C       31.160000000     32.120000000     22.560000000
| 76>   H       31.480000000     32.960000000     21.960000000
| 77>   N       29.390000000     31.480000000     25.770000000
| 78>   N       29.260000000     34.780000000     26.990000000
| 79>   Zn      28.290000000     33.080000000     26.420000000
| 80>   C       34.340000000     38.610000000     26.500000000
| 81>   H       34.310000000     39.100000000     27.480000000
| 82>   C       33.700000000     37.660000000     24.670000000
| 83>   C       33.010000000     37.090000000     23.590000000
| 84>   H       31.960000000     36.820000000     23.650000000
| 85>   C       30.760000000     36.150000000     28.020000000
| 86>   C       31.770000000     36.480000000     28.930000000
| 87>   H       32.460000000     37.300000000     28.740000000
| 88>   C       33.770000000     36.670000000     22.520000000
| 89>   H       33.290000000     36.120000000     21.710000000
| 90>   C       32.050000000     35.550000000     29.910000000
| 91>   H       32.970000000     35.670000000     30.490000000
| 92>   N       30.450000000     36.720000000     26.790000000
| 93>   N       33.230000000     38.220000000     25.840000000
| 94>   Zn      31.260000000     38.470000000     26.190000000
| 95>   N       35.270000000     33.480000000     26.200000000
| 96>   C       34.490000000     33.320000000     27.470000000
| 97>   C       33.010000000     33.670000000     27.300000000
| 98>   C       32.360000000     33.200000000     26.010000000
| 99>   C       33.210000000     33.740000000     24.860000000
|100>   C       34.640000000     33.180000000     24.880000000
|101>   C       34.670000000     31.900000000     27.970000000
|102>   C       35.030000000     34.260000000     28.550000000
|103>   C       35.420000000     33.930000000     23.800000000
|104>   C       34.690000000     31.670000000     24.600000000
|105>   O       36.530000000     33.370000000     26.280000000
|106>   H       32.310000000     32.110000000     26.010000000
|107>   H       31.360000000     33.600000000     25.940000000
|108>   H       32.460000000     33.250000000     28.140000000
|109>   H       32.920000000     34.750000000     27.320000000
|110>   H       32.750000000     33.520000000     23.910000000
|111>   H       33.250000000     34.830000000     24.960000000
|112>   H       35.500000000     34.970000000     24.110000000
|113>   H       36.430000000     33.540000000     23.720000000
|114>   H       34.920000000     33.850000000     22.840000000
|115>   H       35.660000000     31.290000000     24.880000000
|116>   H       33.940000000     31.120000000     25.170000000
|117>   H       34.510000000     31.490000000     23.540000000
|118>   H       34.150000000     31.200000000     27.320000000
|119>   H       35.730000000     31.630000000     28.030000000
|120>   H       34.250000000     31.850000000     28.970000000
|121>   H       36.050000000     33.960000000     28.750000000
|122>   H       35.000000000     35.290000000     28.210000000
|123>   H       34.460000000     34.150000000     29.470000000
|124> **                         ****END OF INPUT****
================================================================================

                       ****************************
                       * Single Point Calculation *
                       ****************************

---------------------------------
CARTESIAN COORDINATES (ANGSTROEM)
---------------------------------
  C     34.610000   27.730000   26.070000
  H     34.680000   27.270000   25.090000
  C     35.180000   28.540000   28.000000
  C     35.820000   29.050000   29.140000
  H     36.880000   29.300000   29.130000
  C     38.130000   30.250000   24.620000
  C     37.280000   29.840000   23.590000
  H     36.600000   28.990000   23.720000
  C     35.010000   29.540000   30.140000
  H     35.480000   30.070000   30.970000
  C     37.040000   30.750000   22.580000
  H     36.150000   30.620000   21.980000
  N     38.440000   29.660000   25.830000
  N     35.700000   28.000000   26.830000
  Zn    37.670000   27.880000   26.400000
  C     29.770000   30.350000   26.420000
  H     29.380000   30.090000   27.400000
  C     30.900000   30.260000   24.570000
  C     31.820000   30.000000   23.540000
  H     32.550000   29.200000   23.610000
  C     33.770000   28.570000   27.880000
  C     32.980000   29.180000   28.850000
  H     31.930000   29.430000   28.670000
  C     31.920000   30.950000   22.540000
  H     32.670000   30.820000   21.760000
  C     33.620000   29.650000   29.970000
  H     33.080000   30.370000   30.590000
  N     33.420000   28.020000   26.660000
  N     30.650000   29.570000   25.740000
  Zn    31.480000   27.780000   26.150000
  C     39.260000   30.550000   26.440000
  H     39.700000   30.370000   27.420000
  C     38.800000   31.500000   24.550000
  C     38.680000   32.320000   23.420000
  H     38.980000   33.370000   23.460000
  C     38.810000   34.880000   27.850000
  C     38.710000   33.900000   28.830000
  H     38.910000   32.850000   28.610000
  C     37.830000   31.900000   22.420000
  H     37.580000   32.590000   21.620000
  C     38.090000   34.260000   30.010000
  H     37.730000   33.440000   30.630000
  N     39.530000   34.900000   26.670000
  N     39.560000   31.640000   25.700000
  Zn    40.640000   33.290000   26.140000
  C     39.130000   36.030000   26.060000
  H     39.510000   36.330000   25.080000
  C     38.100000   36.090000   27.960000
  C     37.410000   36.420000   29.130000
  H     36.650000   37.210000   29.150000
  C     35.100000   37.820000   24.640000
  C     35.850000   37.400000   23.550000
  H     36.930000   37.230000   23.630000
  C     37.500000   35.530000   30.180000
  H     36.830000   35.670000   31.030000
  C     35.160000   36.820000   22.500000
  H     35.730000   36.170000   21.850000
  N     35.500000   38.400000   25.840000
  N     38.310000   36.820000   26.790000
  Zn    37.450000   38.600000   26.380000
  C     29.570000   35.850000   26.230000
  H     29.140000   36.010000   25.240000
  C     30.010000   34.960000   28.160000
  C     30.190000   34.120000   29.280000
  H     29.770000   33.110000   29.300000
  C     30.080000   31.420000   24.550000
  C     30.220000   32.380000   23.550000
  H     29.800000   33.380000   23.650000
  C     31.220000   34.440000   30.140000
  H     31.490000   33.740000   30.930000
  C     31.160000   32.120000   22.560000
  H     31.480000   32.960000   21.960000
  N     29.390000   31.480000   25.770000
  N     29.260000   34.780000   26.990000
  Zn    28.290000   33.080000   26.420000
  C     34.340000   38.610000   26.500000
  H     34.310000   39.100000   27.480000
  C     33.700000   37.660000   24.670000
  C     33.010000   37.090000   23.590000
  H     31.960000   36.820000   23.650000
  C     30.760000   36.150000   28.020000
  C     31.770000   36.480000   28.930000
  H     32.460000   37.300000   28.740000
  C     33.770000   36.670000   22.520000
  H     33.290000   36.120000   21.710000
  C     32.050000   35.550000   29.910000
  H     32.970000   35.670000   30.490000
  N     30.450000   36.720000   26.790000
  N     33.230000   38.220000   25.840000
  Zn    31.260000   38.470000   26.190000
  N     35.270000   33.480000   26.200000
  C     34.490000   33.320000   27.470000
  C     33.010000   33.670000   27.300000
  C     32.360000   33.200000   26.010000
  C     33.210000   33.740000   24.860000
  C     34.640000   33.180000   24.880000
  C     34.670000   31.900000   27.970000
  C     35.030000   34.260000   28.550000
  C     35.420000   33.930000   23.800000
  C     34.690000   31.670000   24.600000
  O     36.530000   33.370000   26.280000
  H     32.310000   32.110000   26.010000
  H     31.360000   33.600000   25.940000
  H     32.460000   33.250000   28.140000
  H     32.920000   34.750000   27.320000
  H     32.750000   33.520000   23.910000
  H     33.250000   34.830000   24.960000
  H     35.500000   34.970000   24.110000
  H     36.430000   33.540000   23.720000
  H     34.920000   33.850000   22.840000
  H     35.660000   31.290000   24.880000
  H     33.940000   31.120000   25.170000
  H     34.510000   31.490000   23.540000
  H     34.150000   31.200000   27.320000
  H     35.730000   31.630000   28.030000
  H     34.250000   31.850000   28.970000
  H     36.050000   33.960000   28.750000
  H     35.000000   35.290000   28.210000
  H     34.460000   34.150000   29.470000

----------------------------
CARTESIAN COORDINATES (A.U.)
----------------------------
  NO LB      ZA    FRAG     MASS         X           Y           Z
   0 C     6.0000    0    12.011   65.403421   52.402106   49.265160
   1 H     1.0000    0     1.008   65.535702   51.532832   47.413229
   2 C     6.0000    0    12.011   66.480565   53.932784   52.912332
   3 C     6.0000    0    12.011   67.689990   54.896544   55.066620
   4 H     1.0000    0     1.008   69.693100   55.368976   55.047722
   5 C     6.0000    0    12.011   72.055257   57.164216   46.525057
   6 C     6.0000    0    12.011   70.448990   56.389428   44.578639
   7 H     1.0000    0     1.008   69.163977   54.783161   44.824304
   8 C     6.0000    0    12.011   66.159312   55.822510   56.956346
   9 H     1.0000    0     1.008   67.047483   56.824065   58.524818
  10 C     6.0000    0    12.011   69.995456   58.109079   42.670016
  11 H     1.0000    0     1.008   68.313600   57.863414   41.536180
  12 N     7.0000    0    14.007   72.641073   56.049277   48.811626
  13 N     7.0000    0    14.007   67.463223   52.912332   50.701352
  14 Zn   30.0000    0    65.380   71.185983   52.685565   49.888770
  15 C     6.0000    0    12.011   56.257147   57.353188   49.926564
  16 H     1.0000    0     1.008   55.520154   56.861859   51.778496
  17 C     6.0000    0    12.011   58.392538   57.183113   46.430571
  18 C     6.0000    0    12.011   60.131086   56.691784   44.484153
  19 H     1.0000    0     1.008   61.510586   55.180003   44.616434
  20 C     6.0000    0    12.011   63.816052   53.989476   52.685565
  21 C     6.0000    0    12.011   62.323168   55.142209   54.518599
  22 H     1.0000    0     1.008   60.338955   55.614640   54.178448
  23 C     6.0000    0    12.011   60.320058   58.487024   42.594427
  24 H     1.0000    0     1.008   61.737353   58.241359   41.120441
  25 C     6.0000    0    12.011   63.532593   56.030380   56.635092
  26 H     1.0000    0     1.008   62.512141   57.390983   57.806722
  27 N     7.0000    0    14.007   63.154647   52.950126   50.380099
  28 N     7.0000    0    14.007   57.920106   55.879202   48.641551
  29 Zn   30.0000    0    65.380   59.488579   52.496592   49.416338
  30 C     6.0000    0    12.011   74.190648   57.731133   49.964359
  31 H     1.0000    0     1.008   75.022128   57.390983   51.816291
  32 C     6.0000    0    12.011   73.321374   59.526373   46.392777
  33 C     6.0000    0    12.011   73.094607   61.075949   44.257386
  34 H     1.0000    0     1.008   73.661525   63.060161   44.332975
  35 C     6.0000    0    12.011   73.340271   65.913648   52.628873
  36 C     6.0000    0    12.011   73.151299   64.061716   54.480804
  37 H     1.0000    0     1.008   73.529244   62.077503   54.065065
  38 C     6.0000    0    12.011   71.488340   60.282264   42.367660
  39 H     1.0000    0     1.008   71.015908   61.586175   40.855879
  40 C     6.0000    0    12.011   71.979668   64.742017   56.710681
  41 H     1.0000    0     1.008   71.299367   63.192442   57.882311
  42 N     7.0000    0    14.007   74.700874   65.951442   50.398996
  43 N     7.0000    0    14.007   74.757566   59.790935   48.565962
  44 Zn   30.0000    0    65.380   76.798470   62.908983   49.397441
  45 C     6.0000    0    12.011   73.944984   68.086833   49.246263
  46 H     1.0000    0     1.008   74.663080   68.653750   47.394331
  47 C     6.0000    0    12.011   71.998566   68.200216   52.836743
  48 C     6.0000    0    12.011   70.694655   68.823826   55.047722
  49 H     1.0000    0     1.008   69.258463   70.316709   55.085517
  50 C     6.0000    0    12.011   66.329387   71.469442   46.562852
  51 C     6.0000    0    12.011   67.746682   70.675757   44.503050
  52 H     1.0000    0     1.008   69.787586   70.354504   44.654229
  53 C     6.0000    0    12.011   70.864730   67.141970   57.031935
  54 H     1.0000    0     1.008   69.598614   67.406531   58.638202
  55 C     6.0000    0    12.011   66.442771   69.579716   42.518838
  56 H     1.0000    0     1.008   67.519915   68.351394   41.290516
  57 N     7.0000    0    14.007   67.085278   72.565484   48.830523
  58 N     7.0000    0    14.007   72.395408   69.579716   50.625763
  59 Zn   30.0000    0    65.380   70.770244   72.943429   49.850975
  60 C     6.0000    0    12.011   55.879202   67.746682   49.567516
  61 H     1.0000    0     1.008   55.066620   68.049038   47.696688
  62 C     6.0000    0    12.011   56.710681   66.064826   53.214688
  63 C     6.0000    0    12.011   57.050832   64.477456   55.331181
  64 H     1.0000    0     1.008   56.257147   62.568832   55.368976
  65 C     6.0000    0    12.011   56.842962   59.375195   46.392777
  66 C     6.0000    0    12.011   57.107524   61.189332   44.503050
  67 H     1.0000    0     1.008   56.313839   63.079058   44.692023
  68 C     6.0000    0    12.011   58.997250   65.082168   56.956346
  69 H     1.0000    0     1.008   59.507476   63.759360   58.449229
  70 C     6.0000    0    12.011   58.883866   60.698003   42.632222
  71 H     1.0000    0     1.008   59.488579   62.285373   41.498386
  72 N     7.0000    0    14.007   55.539051   59.488579   48.698242
  73 N     7.0000    0    14.007   55.293387   65.724675   51.003708
  74 Zn   30.0000    0    65.380   53.460352   62.512141   49.926564
  75 C     6.0000    0    12.011   64.893195   72.962326   50.077743
  76 H     1.0000    0     1.008   64.836504   73.888292   51.929674
  77 C     6.0000    0    12.011   63.683771   71.167086   46.619544
  78 C     6.0000    0    12.011   62.379860   70.089942   44.578639
  79 H     1.0000    0     1.008   60.395647   69.579716   44.692023
  80 C     6.0000    0    12.011   58.127976   68.313600   52.950126
  81 C     6.0000    0    12.011   60.036599   68.937209   54.669777
  82 H     1.0000    0     1.008   61.340510   70.486785   54.310729
  83 C     6.0000    0    12.011   63.816052   69.296257   42.556633
  84 H     1.0000    0     1.008   62.908983   68.256908   41.025954
  85 C     6.0000    0    12.011   60.565723   67.179764   56.521709
  86 H     1.0000    0     1.008   62.304271   67.406531   57.617750
  87 N     7.0000    0    14.007   57.542161   69.390744   50.625763
  88 N     7.0000    0    14.007   62.795599   72.225333   48.830523
  89 Zn   30.0000    0    65.380   59.072839   72.697764   49.491927
  90 N     7.0000    0    14.007   66.650641   63.268031   49.510825
  91 C     6.0000    0    12.011   65.176654   62.965675   51.910777
  92 C     6.0000    0    12.011   62.379860   63.627079   51.589523
  93 C     6.0000    0    12.011   61.151538   62.738908   49.151777
  94 C     6.0000    0    12.011   62.757805   63.759360   46.978592
  95 C     6.0000    0    12.011   65.460113   62.701113   47.016386
  96 C     6.0000    0    12.011   65.516805   60.282264   52.855640
  97 C     6.0000    0    12.011   66.197106   64.742017   53.951681
  98 C     6.0000    0    12.011   66.934100   64.118408   44.975482
  99 C     6.0000    0    12.011   65.554600   59.847627   46.487263
 100 O     8.0000    0    15.999   69.031696   63.060161   49.662003
 101 H     1.0000    0     1.008   61.057051   60.679106   49.151777
 102 H     1.0000    0     1.008   59.261812   63.494798   49.019496
 103 H     1.0000    0     1.008   61.340510   62.833394   53.176893
 104 H     1.0000    0     1.008   62.209784   65.667983   51.627318
 105 H     1.0000    0     1.008   61.888531   63.343620   45.183352
 106 H     1.0000    0     1.008   62.833394   65.819161   47.167564
 107 H     1.0000    0     1.008   67.085278   66.083723   45.561297
 108 H     1.0000    0     1.008   68.842723   63.381415   44.824304
 109 H     1.0000    0     1.008   65.989237   63.967230   43.161345
 110 H     1.0000    0     1.008   67.387634   59.129531   47.016386
 111 H     1.0000    0     1.008   64.137305   58.808277   47.564407
 112 H     1.0000    0     1.008   65.214449   59.507476   44.484153
 113 H     1.0000    0     1.008   64.534147   58.959455   51.627318
 114 H     1.0000    0     1.008   67.519915   59.772038   52.969024
 115 H     1.0000    0     1.008   64.723120   60.187777   54.745366
 116 H     1.0000    0     1.008   68.124627   64.175100   54.329626
 117 H     1.0000    0     1.008   66.140415   66.688435   53.309174
 118 H     1.0000    0     1.008   65.119963   64.534147   55.690229

--------------------------------
INTERNAL COORDINATES (ANGSTROEM)
--------------------------------
 C      0   0   0     0.000000000000     0.00000000     0.00000000
 H      1   0   0     1.084850220076     0.00000000     0.00000000
 C      1   2   0     2.169308645629   160.92091028     0.00000000
 C      3   1   2     1.403317497931   168.03580277    13.01599400
 H      4   3   1     1.089128091640   121.32066121     8.23231832
 C      1   2   3     4.565446308960    84.11062371    46.67532456
 C      6   1   2     1.396960987286    66.61184499    29.83679312
 H      7   6   1     1.096266390984   121.16816328   340.09698742
 C      4   3   1     1.377025780441   116.80738358   171.96035050
 H      9   4   3     1.091192008768   118.15438256   188.60541957
 C      7   6   1     1.380507153187   116.85580167   141.57448083
 H     11   7   6     1.081203033662   118.02446822   201.43631055
 N      6   1   2     1.381412320779    70.06708309   233.15921714
 N      1   2   8     1.355949851580   122.60771364   307.41676724
 Zn    14   1   2     2.019950494443   130.75614836     7.77841168
 C      1   2  14     5.514752940976   108.38559317   158.80456628
 H     16   1   2     1.086324076876   104.98875795   135.60945792
 C     16   1   2     2.169677395375    57.93282933   324.41467537
 C     18  16   1     1.405311353402   166.79897616     6.98446859
 H     19  18  16     1.085264944610   121.96906257    11.90543120
 C      3   1   2     1.415415133450    70.77581131   184.09745754
 C     21   3   1     1.391797399049   121.04038230   186.16539341
 H     22  21   3     1.094257739292   122.01512273   164.86987395
 C     19  18  16     1.382931668594   116.75846451   203.22186418
 H     24  19  18     1.089862376633   119.03444766   175.81532343
 C     22  21   3     1.372916603440   117.00017080   354.88949053
 H     26  22  21     1.092886087385   117.25803235   162.80311930
 N      1   2  14     1.359521974813   122.61286530   183.34999402
 N     16   1   2     1.358381389743    29.17458494     2.64580725
 Zn    29  16   1     2.015217109892   132.45507055    59.75217512
 C     13   6   1     1.355212160512   104.45138302   212.10532548
 H     31  13   6     1.089219904335   122.74328834   181.11241557
 C      6   1   2     1.419964788296   149.92326582   140.93863420
 C     33   6   1     1.401320805526   120.96183799   260.91165359
 H     34  33   6     1.092748827499   120.61343852   164.63372469
 C     31  13   6     4.575969842558   134.47635537    61.36233788
 C     36  31  13     1.389532295415    63.70652825   100.91115531
 H     37  36  31     1.091283647820   121.54861857     6.69164381
 C     34  33   6     1.378005805503   117.36462135     3.59470402
 H     39  34  33     1.085633455638   118.88710004   169.19225282
 C     37  36  31     1.380724447527   116.81886638   199.53059648
 H     41  37  36     1.089219904335   116.01390952   160.99655973
 N     36  31  13     1.382461572703    72.51040509   257.18142070
 N     31  13   6     1.351184665396   114.68367952   356.96508161
 Zn    44  31  13     2.020519735118   131.16138063   176.61178608
 C     43  36  31     1.344990706288   104.14520695   145.03687624
 H     46  43  36     1.093069073755   122.26369411   181.02293630
 C     36  31  13     1.407231324268   152.53933118   353.75858174
 C     48  36  31     1.397819730867   121.16295806   100.31813105
 H     49  48  36     1.096403210502   121.83965196   196.30060486
 C     46  43  36     4.632645032808   136.24930882   302.71099204
 C     51  46  43     1.388164255411    69.74368070   252.84644731
 H     52  51  46     1.096220780682   121.46008474   341.44198084
 C     49  48  36     1.379383920451   116.91156425     2.29770064
 H     54  49  48     1.091329464461   118.03773381   191.03199685
 C     52  51  46     1.383835250310   116.94941452   142.25619176
 H     56  52  51     1.081619156635   116.42896802   202.64572377
 N     51  46  43     1.391545902944    69.30844717   101.48606526
 N     46  43  36     1.352553141285   115.22905062     6.14721037
 Zn    59  46  43     2.018935363007   131.57489720   179.17189173
 C     16   1   2     5.506913836261   120.27676325   253.28939089
 H     61  16   1     1.091146186356   101.07342285   107.94391951
 C     61  16   1     2.170391669722    63.41065880   276.74015290
 C     63  61  16     1.411523999088   167.28227177   344.54963902
 H     64  63  61     1.094029250066   120.99364610   349.10203013
 C     18  16   1     1.420704050814    71.18771117   205.77143030
 C     66  18  16     1.393269536020   120.97708851   171.05890359
 H     67  66  18     1.089219904335   121.86683867   196.22409867
 C     64  63  61     1.379456414679   116.86200053   149.87749307
 H     69  64  63     1.089495295997   119.21267549   189.12527969
 C     67  66  18     1.389712200421   116.76656145     2.22298164
 H     71  67  66     1.080740486889   116.76661695   197.34158586
 N     16   1   2     1.357865972768   127.63238601   289.76133340
 N     61  16   1     1.348554781980    36.53037241   238.87904625
 Zn    74  61  16     2.038577935719   127.84053481   311.74615053
 C     58  51  46     1.351036639029   103.84237134   215.25156380
 H     76  58  51     1.096083938392   121.98947477   182.48913049
 C     51  46  43     1.409432509913   144.45942748     8.64266225
 C     78  51  46     1.402640367307   121.22366859   260.13985140
 H     79  78  51     1.085817664251   122.28999212   170.51598369
 C     63  61  16     1.413577023016    70.99107693   143.44306914
 C     81  63  61     1.398963902322   121.14511543   190.14785988
 H     82  81  63     1.088393311262   121.45727532   169.55719929
 C     79  78  51     1.378005805503   116.77087456     1.44158581
 H     84  79  78     1.090412765883   119.19320571   173.11742071
 C     82  81  63     1.379746353501   116.71387541     4.04277282
 H     86  82  81     1.094166349327   118.24321605   166.44455973
 N     61  16   1     1.358270959713   127.01050476   321.76026986
 N     76  58  51     1.348999629355   114.99507328     0.02988173
 Zn    89  76  58     2.016407696871   133.08858595   188.71717653
 N     36  31  13     4.148987828375    69.02697650     1.30868334
 C     91  36  31     1.498966310495    98.22478898   106.49784426
 C     92  91  36     1.530294089383   112.62653332   143.79528944
 C     93  92  91     1.519045753096   115.93881429    40.40197421
 C     94  93  92     1.528594125332   106.95644025   305.62159746
 C     91  36  31     1.493084056576   141.20541533   284.05508969
 C     92  91  36     1.516179408909   108.51757622   267.67018383
 C     92  91  36     1.530228741071   110.41223082    25.24987646
 C     96  91  36     1.528823076749   108.10081647   340.70088808
 C     96  91  36     1.536554587380   110.17113229   100.53725175
 O     91  36  31     1.267320006944    32.42351493   337.51237051
 H     94  93  92     1.091146186356   109.18913680    67.28689911
 H     94  93  92     1.079305332147   109.68617524   186.83174881
 H     93  92  91     1.088347371017   108.34523416   162.81043379
 H     93  92  91     1.083928041892   107.82664619   280.84235008
 H     95  94  93     1.078192932642   110.70487810   185.36537696
 H     95  94  93     1.095308175812   107.64838907   302.47993478
 H     99  96  91     1.088163590643   107.76536315   309.00478732
 H     99  96  91     1.085633455638   110.51644856    65.85721585
 H     99  96  91     1.085357084097   110.71005869   187.59778143
 H    100  96  91     1.078749275782   109.15552459   317.26242545
 H    100  96  91     1.090825375576   112.20355349    76.63707727
 H    100  96  91     1.090137605993   109.51650538   196.73083235
 H     97  92  91     1.087612063192   110.42222385   289.70890680
 H     97  92  91     1.095490757606   111.33162411    51.79163291
 H     97  92  91     1.085771615028   107.51352954   170.15220263
 H     98  92  91     1.081850266904   107.02841101   296.97750482
 H     98  92  91     1.085080642164   110.62191834    57.19314508
 H     98  92  91     1.087841900278   110.47899560   179.58667040

---------------------------
INTERNAL COORDINATES (A.U.)
---------------------------
 C      0   0   0     0.000000000000     0.00000000     0.00000000
 H      1   0   0     2.050069812269     0.00000000     0.00000000
 C      1   2   0     4.099399240186   160.92091028     0.00000000
 C      3   1   2     2.651885750030   168.03580277    13.01599400
 H      4   3   1     2.058153817960   121.32066121     8.23231832
 C      1   2   3     8.627443203057    84.11062371    46.67532456
 C      6   1   2     2.639873685743    66.61184499    29.83679312
 H      7   6   1     2.071643248781   121.16816328   340.09698742
 C      4   3   1     2.602201604383   116.80738358   171.96035050
 H      9   4   3     2.062054056096   118.15438256   188.60541957
 C      7   6   1     2.608780445442   116.85580167   141.57448083
 H     11   7   6     2.043177628786   118.02446822   201.43631055
 N      6   1   2     2.610490964297    70.06708309   233.15921714
 N      1   2   8     2.562373870817   122.60771364   307.41676724
 Zn    14   1   2     3.817153238576   130.75614836     7.77841168
 C      1   2  14    10.421372754681   108.38559317   158.80456628
 H     16   1   2     2.052854997980   104.98875795   135.60945792
 C     16   1   2     4.100096076218    57.93282933   324.41467537
 C     18  16   1     2.655653590820   166.79897616     6.98446859
 H     19  18  16     2.050853528059   121.96906257    11.90543120
 C      3   1   2     2.674746968029    70.77581131   184.09745754
 C     21   3   1     2.630115918107   121.04038230   186.16539341
 H     22  21   3     2.067847447185   122.01512273   164.86987395
 C     19  18  16     2.613362115569   116.75846451   203.22186418
 H     24  19  18     2.059541415501   119.03444766   175.81532343
 C     22  21   3     2.594436385214   117.00017080   354.88949053
 H     26  22  21     2.065255400731   117.25803235   162.80311930
 N      1   2  14     2.569124205445   122.61286530   183.34999402
 N     16   1   2     2.566968812030    29.17458494     2.64580725
 Zn    29  16   1     3.808208438087   132.45507055    59.75217512
 C     13   6   1     2.560979836728   104.45138302   212.10532548
 H     31  13   6     2.058327318809   122.74328834   181.11241557
 C      6   1   2     2.683344569691   149.92326582   140.93863420
 C     33   6   1     2.648112548210   120.96183799   260.91165359
 H     34  33   6     2.064996017136   120.61343852   164.63372469
 C     31  13   6     8.647329799517   134.47635537    61.36233788
 C     36  31  13     2.625835492572    63.70652825   100.91115531
 H     37  36  31     2.062227228807   121.54861857     6.69164381
 C     34  33   6     2.604053583354   117.36462135     3.59470402
 H     39  34  33     2.051549912978   118.88710004   169.19225282
 C     37  36  31     2.609191072237   116.81886638   199.53059648
 H     41  37  36     2.058327318809   116.01390952   160.99655973
 N     36  31  13     2.612473763078    72.51040509   257.18142070
 N     31  13   6     2.553368973952   114.68367952   356.96508161
 Zn    44  31  13     3.818228947556   131.16138063   176.61178608
 C     43  36  31     2.541664087553   104.14520695   145.03687624
 H     46  43  36     2.065601194856   122.26369411   181.02293630
 C     36  31  13     2.659281809941   152.53933118   353.75858174
 C     48  36  31     2.641496475929   121.16295806   100.31813105
 H     49  48  36     2.071901800202   121.83965196   196.30060486
 C     46  43  36     8.754430387678   136.24930882   302.71099204
 C     51  46  43     2.623250271625    69.74368070   252.84644731
 H     52  51  46     2.071557057803   121.46008474   341.44198084
 C     49  48  36     2.606657843188   116.91156425     2.29770064
 H     54  49  48     2.062313809710   118.03773381   191.03199685
 C     52  51  46     2.615069637552   116.94941452   142.25619176
 H     56  52  51     2.043963987243   116.42896802   202.64572377
 N     51  46  43     2.629640659344    69.30844717   101.48606526
 N     46  43  36     2.555955018604   115.22905062     6.14721037
 Zn    59  46  43     3.815234918172   131.57489720   179.17189173
 C     16   1   2    10.406558993634   120.27676325   253.28939089
 H     61  16   1     2.061967464286   101.07342285   107.94391951
 C     61  16   1     4.101445859119    63.41065880   276.74015290
 C     63  61  16     2.667393789733   167.28227177   344.54963902
 H     64  63  61     2.067415665124   120.99364610   349.10203013
 C     18  16   1     2.684741573391    71.18771117   205.77143030
 C     66  18  16     2.632897853812   120.97708851   171.05890359
 H     67  66  18     2.058327318809   121.86683867   196.22409867
 C     64  63  61     2.606794837425   116.86200053   149.87749307
 H     69  64  63     2.058847733630   119.21267549   189.12527969
 C     67  66  18     2.626175463765   116.76656145     2.22298164
 H     71  67  66     2.042303542060   116.76661695   197.34158586
 N     16   1   2     2.565994815101   127.63238601   289.76133340
 N     61  16   1     2.548399214531    36.53037241   238.87904625
 Zn    74  61  16     3.852354001163   127.84053481   311.74615053
 C     58  51  46     2.553089244659   103.84237134   215.25156380
 H     76  58  51     2.071298463350   121.98947477   182.48913049
 C     51  46  43     2.663441447981   144.45942748     8.64266225
 C     78  51  46     2.650606158594   121.22366859   260.13985140
 H     79  78  51     2.051898016809   122.28999212   170.51598369
 C     63  61  16     2.671273442705    70.99107693   143.44306914
 C     81  63  61     2.643658646630   121.14511543   190.14785988
 H     82  81  63     2.056765284277   121.45727532   169.55719929
 C     79  78  51     2.604053583354   116.77087456     1.44158581
 H     84  79  78     2.060581500450   119.19320571   173.11742071
 C     82  81  63     2.607342742394   116.71387541     4.04277282
 H     86  82  81     2.067674745181   118.24321605   166.44455973
 N     61  16   1     2.566760129516   127.01050476   321.76026986
 N     76  58  51     2.549239854242   114.99507328     0.02988173
 Zn    89  76  58     3.810458321417   133.08858595   188.71717653
 N     36  31  13     7.840450728601    69.02697650     1.30868334
 C     91  36  31     2.832635810811    98.22478898   106.49784426
 C     92  91  36     2.891836733292   112.62653332   143.79528944
 C     93  92  91     2.870580458248   115.93881429    40.40197421
 C     94  93  92     2.888624266799   106.95644025   305.62159746
 C     91  36  31     2.821519961852   141.20541533   284.05508969
 C     92  91  36     2.865163852729   108.51757622   267.67018383
 C     92  91  36     2.891713242879   110.41223082    25.24987646
 C     96  91  36     2.889056922274   108.10081647   340.70088808
 C     96  91  36     2.903667359969   110.17113229   100.53725175
 O     91  36  31     2.394887737163    32.42351493   337.51237051
 H     94  93  92     2.061967464286   109.18913680    67.28689911
 H     94  93  92     2.039591492638   109.68617524   186.83174881
 H     93  92  91     2.056678469796   108.34523416   162.81043379
 H     93  92  91     2.048327148054   107.82664619   280.84235008
 H     95  94  93     2.037489362224   110.70487810   185.36537696
 H     95  94  93     2.069832484529   107.64838907   302.47993478
 H     99  96  91     2.056331175219   107.76536315   309.00478732
 H     99  96  91     2.051549912978   110.51644856    65.85721585
 H     99  96  91     2.051027646455   110.71005869   187.59778143
 H    100  96  91     2.038540698394   109.15552459   317.26242545
 H    100  96  91     2.061361219770   112.20355349    76.63707727
 H    100  96  91     2.060061523615   109.51650538   196.73083235
 H     97  92  91     2.055288939381   110.42222385   289.70890680
 H     97  92  91     2.070177514117   111.33162411    51.79163291
 H     97  92  91     2.051810996388   107.51352954   170.15220263
 H     98  92  91     2.044400722358   107.02841101   296.97750482
 H     98  92  91     2.050505246910   110.62191834    57.19314508
 H     98  92  91     2.055723268529   110.47899560   179.58667040

---------------------
BASIS SET INFORMATION
---------------------
There are 5 groups of distinct atoms

 Group   1 Type C   : 11s6p1d contracted to 5s3p1d pattern {62111/411/1}
 Group   2 Type H   : 5s1p contracted to 3s1p pattern {311/1}
 Group   3 Type N   : 11s6p1d contracted to 5s3p1d pattern {62111/411/1}
 Group   4 Type Zn  : 17s11p6d contracted to 6s4p3d pattern {842111/6311/411}
 Group   5 Type O   : 11s6p1d contracted to 5s3p1d pattern {62111/411/1}

Atom   0C    basis set group =>   1
Atom   1H    basis set group =>   2
Atom   2C    basis set group =>   1
Atom   3C    basis set group =>   1
Atom   4H    basis set group =>   2
Atom   5C    basis set group =>   1
Atom   6C    basis set group =>   1
Atom   7H    basis set group =>   2
Atom   8C    basis set group =>   1
Atom   9H    basis set group =>   2
Atom  10C    basis set group =>   1
Atom  11H    basis set group =>   2
Atom  12N    basis set group =>   3
Atom  13N    basis set group =>   3
Atom  14Zn   basis set group =>   4
Atom  15C    basis set group =>   1
Atom  16H    basis set group =>   2
Atom  17C    basis set group =>   1
Atom  18C    basis set group =>   1
Atom  19H    basis set group =>   2
Atom  20C    basis set group =>   1
Atom  21C    basis set group =>   1
Atom  22H    basis set group =>   2
Atom  23C    basis set group =>   1
Atom  24H    basis set group =>   2
Atom  25C    basis set group =>   1
Atom  26H    basis set group =>   2
Atom  27N    basis set group =>   3
Atom  28N    basis set group =>   3
Atom  29Zn   basis set group =>   4
Atom  30C    basis set group =>   1
Atom  31H    basis set group =>   2
Atom  32C    basis set group =>   1
Atom  33C    basis set group =>   1
Atom  34H    basis set group =>   2
Atom  35C    basis set group =>   1
Atom  36C    basis set group =>   1
Atom  37H    basis set group =>   2
Atom  38C    basis set group =>   1
Atom  39H    basis set group =>   2
Atom  40C    basis set group =>   1
Atom  41H    basis set group =>   2
Atom  42N    basis set group =>   3
Atom  43N    basis set group =>   3
Atom  44Zn   basis set group =>   4
Atom  45C    basis set group =>   1
Atom  46H    basis set group =>   2
Atom  47C    basis set group =>   1
Atom  48C    basis set group =>   1
Atom  49H    basis set group =>   2
Atom  50C    basis set group =>   1
Atom  51C    basis set group =>   1
Atom  52H    basis set group =>   2
Atom  53C    basis set group =>   1
Atom  54H    basis set group =>   2
Atom  55C    basis set group =>   1
Atom  56H    basis set group =>   2
Atom  57N    basis set group =>   3
Atom  58N    basis set group =>   3
Atom  59Zn   basis set group =>   4
Atom  60C    basis set group =>   1
Atom  61H    basis set group =>   2
Atom  62C    basis set group =>   1
Atom  63C    basis set group =>   1
Atom  64H    basis set group =>   2
Atom  65C    basis set group =>   1
Atom  66C    basis set group =>   1
Atom  67H    basis set group =>   2
Atom  68C    basis set group =>   1
Atom  69H    basis set group =>   2
Atom  70C    basis set group =>   1
Atom  71H    basis set group =>   2
Atom  72N    basis set group =>   3
Atom  73N    basis set group =>   3
Atom  74Zn   basis set group =>   4
Atom  75C    basis set group =>   1
Atom  76H    basis set group =>   2
Atom  77C    basis set group =>   1
Atom  78C    basis set group =>   1
Atom  79H    basis set group =>   2
Atom  80C    basis set group =>   1
Atom  81C    basis set group =>   1
Atom  82H    basis set group =>   2
Atom  83C    basis set group =>   1
Atom  84H    basis set group =>   2
Atom  85C    basis set group =>   1
Atom  86H    basis set group =>   2
Atom  87N    basis set group =>   3
Atom  88N    basis set group =>   3
Atom  89Zn   basis set group =>   4
Atom  90N    basis set group =>   3
Atom  91C    basis set group =>   1
Atom  92C    basis set group =>   1
Atom  93C    basis set group =>   1
Atom  94C    basis set group =>   1
Atom  95C    basis set group =>   1
Atom  96C    basis set group =>   1
Atom  97C    basis set group =>   1
Atom  98C    basis set group =>   1
Atom  99C    basis set group =>   1
Atom 100O    basis set group =>   5
Atom 101H    basis set group =>   2
Atom 102H    basis set group =>   2
Atom 103H    basis set group =>   2
Atom 104H    basis set group =>   2
Atom 105H    basis set group =>   2
Atom 106H    basis set group =>   2
Atom 107H    basis set group =>   2
Atom 108H    basis set group =>   2
Atom 109H    basis set group =>   2
Atom 110H    basis set group =>   2
Atom 111H    basis set group =>   2
Atom 112H    basis set group =>   2
Atom 113H    basis set group =>   2
Atom 114H    basis set group =>   2
Atom 115H    basis set group =>   2
Atom 116H    basis set group =>   2
Atom 117H    basis set group =>   2
Atom 118H    basis set group =>   2
---------------------------------
AUXILIARY/J BASIS SET INFORMATION
---------------------------------
There are 5 groups of distinct atoms

 Group   1 Type C   : 12s5p4d2f1g contracted to 6s4p3d1f1g pattern {711111/2111/211/2/1}
 Group   2 Type H   : 5s2p1d contracted to 3s1p1d pattern {311/2/1}
 Group   3 Type N   : 12s5p4d2f1g contracted to 6s4p3d1f1g pattern {711111/2111/211/2/1}
 Group   4 Type Zn  : 19s5p5d3f3g contracted to 8s5p5d2f3g pattern {121111111/11111/11111/21/111}
 Group   5 Type O   : 12s5p4d2f1g contracted to 6s4p3d1f1g pattern {711111/2111/211/2/1}

Atom   0C    basis set group =>   1
Atom   1H    basis set group =>   2
Atom   2C    basis set group =>   1
Atom   3C    basis set group =>   1
Atom   4H    basis set group =>   2
Atom   5C    basis set group =>   1
Atom   6C    basis set group =>   1
Atom   7H    basis set group =>   2
Atom   8C    basis set group =>   1
Atom   9H    basis set group =>   2
Atom  10C    basis set group =>   1
Atom  11H    basis set group =>   2
Atom  12N    basis set group =>   3
Atom  13N    basis set group =>   3
Atom  14Zn   basis set group =>   4
Atom  15C    basis set group =>   1
Atom  16H    basis set group =>   2
Atom  17C    basis set group =>   1
Atom  18C    basis set group =>   1
Atom  19H    basis set group =>   2
Atom  20C    basis set group =>   1
Atom  21C    basis set group =>   1
Atom  22H    basis set group =>   2
Atom  23C    basis set group =>   1
Atom  24H    basis set group =>   2
Atom  25C    basis set group =>   1
Atom  26H    basis set group =>   2
Atom  27N    basis set group =>   3
Atom  28N    basis set group =>   3
Atom  29Zn   basis set group =>   4
Atom  30C    basis set group =>   1
Atom  31H    basis set group =>   2
Atom  32C    basis set group =>   1
Atom  33C    basis set group =>   1
Atom  34H    basis set group =>   2
Atom  35C    basis set group =>   1
Atom  36C    basis set group =>   1
Atom  37H    basis set group =>   2
Atom  38C    basis set group =>   1
Atom  39H    basis set group =>   2
Atom  40C    basis set group =>   1
Atom  41H    basis set group =>   2
Atom  42N    basis set group =>   3
Atom  43N    basis set group =>   3
Atom  44Zn   basis set group =>   4
Atom  45C    basis set group =>   1
Atom  46H    basis set group =>   2
Atom  47C    basis set group =>   1
Atom  48C    basis set group =>   1
Atom  49H    basis set group =>   2
Atom  50C    basis set group =>   1
Atom  51C    basis set group =>   1
Atom  52H    basis set group =>   2
Atom  53C    basis set group =>   1
Atom  54H    basis set group =>   2
Atom  55C    basis set group =>   1
Atom  56H    basis set group =>   2
Atom  57N    basis set group =>   3
Atom  58N    basis set group =>   3
Atom  59Zn   basis set group =>   4
Atom  60C    basis set group =>   1
Atom  61H    basis set group =>   2
Atom  62C    basis set group =>   1
Atom  63C    basis set group =>   1
Atom  64H    basis set group =>   2
Atom  65C    basis set group =>   1
Atom  66C    basis set group =>   1
Atom  67H    basis set group =>   2
Atom  68C    basis set group =>   1
Atom  69H    basis set group =>   2
Atom  70C    basis set group =>   1
Atom  71H    basis set group =>   2
Atom  72N    basis set group =>   3
Atom  73N    basis set group =>   3
Atom  74Zn   basis set group =>   4
Atom  75C    basis set group =>   1
Atom  76H    basis set group =>   2
Atom  77C    basis set group =>   1
Atom  78C    basis set group =>   1
Atom  79H    basis set group =>   2
Atom  80C    basis set group =>   1
Atom  81C    basis set group =>   1
Atom  82H    basis set group =>   2
Atom  83C    basis set group =>   1
Atom  84H    basis set group =>   2
Atom  85C    basis set group =>   1
Atom  86H    basis set group =>   2
Atom  87N    basis set group =>   3
Atom  88N    basis set group =>   3
Atom  89Zn   basis set group =>   4
Atom  90N    basis set group =>   3
Atom  91C    basis set group =>   1
Atom  92C    basis set group =>   1
Atom  93C    basis set group =>   1
Atom  94C    basis set group =>   1
Atom  95C    basis set group =>   1
Atom  96C    basis set group =>   1
Atom  97C    basis set group =>   1
Atom  98C    basis set group =>   1
Atom  99C    basis set group =>   1
Atom 100O    basis set group =>   5
Atom 101H    basis set group =>   2
Atom 102H    basis set group =>   2
Atom 103H    basis set group =>   2
Atom 104H    basis set group =>   2
Atom 105H    basis set group =>   2
Atom 106H    basis set group =>   2
Atom 107H    basis set group =>   2
Atom 108H    basis set group =>   2
Atom 109H    basis set group =>   2
Atom 110H    basis set group =>   2
Atom 111H    basis set group =>   2
Atom 112H    basis set group =>   2
Atom 113H    basis set group =>   2
Atom 114H    basis set group =>   2
Atom 115H    basis set group =>   2
Atom 116H    basis set group =>   2
Atom 117H    basis set group =>   2
Atom 118H    basis set group =>   2
------------------------------------------------------------------------------
                           ORCA GTO INTEGRAL CALCULATION
                           -- RI-GTO INTEGRALS CHOSEN --
------------------------------------------------------------------------------
------------------------------------------------------------------------------
                   ___                                                        
                  /   \      - P O W E R E D   B Y -                         
                 /     \                                                     
                 |  |  |   _    _      __       _____    __    __             
                 |  |  |  | |  | |    /  \     |  _  \  |  |  /  |          
                  \  \/   | |  | |   /    \    | | | |  |  | /  /          
                 / \  \   | |__| |  /  /\  \   | |_| |  |  |/  /          
                |  |  |   |  __  | /  /__\  \  |    /   |      \           
                |  |  |   | |  | | |   __   |  |    \   |  |\   \          
                \     /   | |  | | |  |  |  |  | |\  \  |  | \   \       
                 \___/    |_|  |_| |__|  |__|  |_| \__\ |__|  \__/        
                                                                              
                      - O R C A' S   B I G   F R I E N D -                    
                                      &                                       
                       - I N T E G R A L  F E E D E R -                       
                                                                              
 v1 FN, 2020, v2 2021                                                         
------------------------------------------------------------------------------


Reading SHARK input file zif7_tempo_lpA.SHARKINP.tmp ... ok
----------------------
SHARK INTEGRAL PACKAGE
----------------------

Number of atoms                             ...    119
Number of basis functions                   ...   1721
Number of shells                            ...    855
Maximum angular momentum                    ...      2
Integral batch strategy                     ... SHARK/LIBINT Hybrid
RI-J (if used) integral strategy            ... SPLIT-RIJ (Revised 2003 algorithm where possible)
Printlevel                                  ...      1
Contraction scheme used                     ... SEGMENTED contraction
Coulomb Range Separation                    ... NOT USED
Exchange Range Separation                   ... NOT USED
Finite Nucleus Model                        ... NOT USED
Auxiliary Coulomb fitting basis             ... AVAILABLE
   # of basis functions in Aux-J            ...   4247
   # of shells in Aux-J                     ...   1353
   Maximum angular momentum in Aux-J        ...      4
Auxiliary J/K fitting basis                 ... NOT available
Auxiliary Correlation fitting basis         ... NOT available
Auxiliary 'external' fitting basis          ... NOT available
Integral threshold                          ...     1.000000e-10
Primitive cut-off                           ...     1.000000e-11
Primitive pair pre-selection threshold      ...     1.000000e-11

Calculating pre-screening integrals         ... done (  2.8 sec) Dimension = 855
Organizing shell pair data                  ... done (  1.6 sec)
Shell pair information
Total number of shell pairs                 ...    365940
Shell pairs after pre-screening             ...    180633
Total number of primitive shell pairs       ...   1383881
Primitive shell pairs kept                  ...    367025
          la=0 lb=0:  63503 shell pairs
          la=1 lb=0:  71425 shell pairs
          la=1 lb=1:  20451 shell pairs
          la=2 lb=0:  15485 shell pairs
          la=2 lb=1:   8957 shell pairs
          la=2 lb=2:    812 shell pairs

Calculating one electron integrals          ... done (  4.1 sec)
Calculating RI/J V-Matrix + Cholesky decomp.... done (  3.6 sec)
Calculating Nuclear repulsion               ... done (  0.0 sec) ENN=  18198.987833470281 Eh

SHARK setup successfully completed in  16.9 seconds

Maximum memory used throughout the entire GTOINT-calculation: 836.3 MB
-------------------------------------------------------------------------------
                                 ORCA SCF
-------------------------------------------------------------------------------

------------
SCF SETTINGS
------------
Hamiltonian:
 Density Functional     Method          .... DFT(GTOs)
 Exchange Functional    Exchange        .... B88
   X-Alpha parameter    XAlpha          ....  0.666667
   Becke's b parameter  XBeta           ....  0.004200
 Correlation Functional Correlation     .... LYP
 LDA part of GGA corr.  LDAOpt          .... VWN-5
 Gradients option       PostSCFGGA      .... off
 Hybrid DFT is turned on
   Fraction HF Exchange ScalHFX         ....  0.200000
   Scaling of DF-GGA-X  ScalDFX         ....  0.720000
   Scaling of DF-GGA-C  ScalDFC         ....  0.810000
   Scaling of DF-LDA-C  ScalLDAC        ....  1.000000
   Perturbative correction              ....  0.000000
   Density functional embedding theory  .... OFF
   NL short-range parameter             ....  4.800000
 RI-approximation to the Coulomb term is turned on
   Number of AuxJ basis functions       .... 4247
   RIJ-COSX (HFX calculated with COS-X)).... on


General Settings:
 Integral files         IntName         .... zif7_tempo_lpA
 Hartree-Fock type      HFTyp           .... UHF
 Total Charge           Charge          ....    0
 Multiplicity           Mult            ....    2
 Number of Electrons    NEL             ....  633
 Basis Dimension        Dim             .... 1721
 Nuclear Repulsion      ENuc            ....  18198.9878334703 Eh

Convergence Acceleration:
 DIIS                   CNVDIIS         .... on
   Start iteration      DIISMaxIt       ....    12
   Startup error        DIISStart       ....  0.200000
   # of expansion vecs  DIISMaxEq       ....     5
   Bias factor          DIISBfac        ....   1.050
   Max. coefficient     DIISMaxC        ....  10.000
 Trust-Rad. Augm. Hess. CNVTRAH         .... auto
   Auto Start mean grad. ratio tolernc. ....  1.125000
   Auto Start start iteration           ....    20
   Auto Start num. interpolation iter.  ....    10
   Max. Number of Micro iterations      ....    16
   Max. Number of Macro iterations      .... Maxiter - #DIIS iter
   Number of Davidson start vectors     ....     2
   Converg. threshold I  (grad. norm)   ....   5.000e-05
   Converg. threshold II (energy diff.) ....   1.000e-06
   Grad. Scal. Fac. for Micro threshold ....   0.100
   Minimum threshold for Micro iter.    ....   0.010
   NR start threshold (gradient norm)   ....   0.001
   Initial trust radius                 ....   0.400
   Minimum AH scaling param. (alpha)    ....   1.000
   Maximum AH scaling param. (alpha)    .... 1000.000
   Orbital update algorithm             .... Taylor
   White noise on init. David. guess    .... on
   Maximum white noise                  ....   0.010
   Quad. conv. algorithm                .... NR
 SOSCF                  CNVSOSCF        .... off
 Level Shifting         CNVShift        .... on
   Level shift para.    LevelShift      ....    0.2500
   Turn off err/grad.   ShiftErr        ....    0.0010
 Zerner damping         CNVZerner       .... off
 Static damping         CNVDamp         .... on
   Fraction old density DampFac         ....    0.7000
   Max. Damping (<1)    DampMax         ....    0.9800
   Min. Damping (>=0)   DampMin         ....    0.0000
   Turn off err/grad.   DampErr         ....    0.1000
 Fernandez-Rico         CNVRico         .... off

SCF Procedure:
 Maximum # iterations   MaxIter         ....   125
 SCF integral mode      SCFMode         .... Direct
   Integral package                     .... SHARK and LIBINT hybrid scheme
 Reset frequency        DirectResetFreq ....    20
 Integral Threshold     Thresh          ....  1.000e-10 Eh
 Primitive CutOff       TCut            ....  1.000e-11 Eh

Convergence Tolerance:
 Convergence Check Mode ConvCheckMode   .... Total+1el-Energy
 Convergence forced     ConvForced      .... 0
 Energy Change          TolE            ....  1.000e-06 Eh
 1-El. energy change                    ....  1.000e-03 Eh
 DIIS Error             TolErr          ....  1.000e-06


Diagonalization of the overlap matrix:
Smallest eigenvalue                        ... 1.172e-05
Time for diagonalization                   ...    2.906 sec
Threshold for overlap eigenvalues          ... 1.000e-08
Number of eigenvalues below threshold      ... 0
Time for construction of square roots      ...    1.938 sec
Total time needed                          ...    4.851 sec

Time for model grid setup =   34.732 sec

------------------------------
INITIAL GUESS: MODEL POTENTIAL
------------------------------
Loading Hartree-Fock densities                     ... done
Calculating cut-offs                               ... done
Initializing the effective Hamiltonian             ... done
Setting up the integral package (SHARK)            ... done
Starting the Coulomb interaction                   ... done (  76.3 sec)
Reading the grid                                   ... done
Mapping shells                                     ... done
Starting the XC term evaluation                    ... done (  15.4 sec)
  promolecular density results
     # of electrons  =    632.972276882
     EX              =   -789.866095980
     EC              =    -24.190564977
     EX+EC           =   -814.056660957
Transforming the Hamiltonian                       ... done (   1.8 sec)
Diagonalizing the Hamiltonian                      ... done (   2.8 sec)
Back transforming the eigenvectors                 ... done (   0.8 sec)
Now organizing SCF variables                       ... done
                      ------------------
                      INITIAL GUESS DONE ( 132.5 sec)
                      ------------------
-------------------
DFT GRID GENERATION
-------------------

General Integration Accuracy     IntAcc      ... 4.388
Radial Grid Type                 RadialGrid  ... OptM3 with GC (2021)
Angular Grid (max. ang.)         AngularGrid ... 4 (Lebedev-302)
Angular grid pruning method      GridPruning ... 4 (adaptive)
Weight generation scheme         WeightScheme... Becke
Basis function cutoff            BFCut       ... 1.0000e-10
Integration weight cutoff        WCut        ... 1.0000e-14
Angular grids for H and He will be reduced by one unit
Partially contracted basis set               ... off
Rotationally invariant grid construction     ... off

Total number of grid points                  ...   595894
Total number of batches                      ...     9368
Average number of points per batch           ...       63
Average number of grid points per atom       ...     5008
Time for grid setup =  100.479 sec

--------------------
COSX GRID GENERATION
--------------------

GRIDX 1
-------
General Integration Accuracy     IntAcc      ... 3.816
Radial Grid Type                 RadialGrid  ... OptM3 with GC (2021)
Angular Grid (max. ang.)         AngularGrid ... 1 (Lebedev-50)
Angular grid pruning method      GridPruning ... 4 (adaptive)
Weight generation scheme         WeightScheme... Becke
Basis function cutoff            BFCut       ... 1.0000e-10
Integration weight cutoff        WCut        ... 1.0000e-14
Angular grids for H and He will be reduced by one unit
Partially contracted basis set               ... on
Rotationally invariant grid construction     ... off

Total number of grid points                  ...    73875
Total number of batches                      ...     1208
Average number of points per batch           ...       61
Average number of grid points per atom       ...      621
UseSFitting                                  ... on

GRIDX 2
-------
General Integration Accuracy     IntAcc      ... 4.020
Radial Grid Type                 RadialGrid  ... OptM3 with GC (2021)
Angular Grid (max. ang.)         AngularGrid ... 2 (Lebedev-110)
Angular grid pruning method      GridPruning ... 4 (adaptive)
Weight generation scheme         WeightScheme... Becke
Basis function cutoff            BFCut       ... 1.0000e-10
Integration weight cutoff        WCut        ... 1.0000e-14
Angular grids for H and He will be reduced by one unit
Partially contracted basis set               ... on
Rotationally invariant grid construction     ... off

Total number of grid points                  ...   158219
Total number of batches                      ...     2529
Average number of points per batch           ...       62
Average number of grid points per atom       ...     1330
UseSFitting                                  ... on

GRIDX 3
-------
General Integration Accuracy     IntAcc      ... 4.338
Radial Grid Type                 RadialGrid  ... OptM3 with GC (2021)
Angular Grid (max. ang.)         AngularGrid ... 3 (Lebedev-194)
Angular grid pruning method      GridPruning ... 4 (adaptive)
Weight generation scheme         WeightScheme... Becke
Basis function cutoff            BFCut       ... 1.0000e-10
Integration weight cutoff        WCut        ... 1.0000e-14
Angular grids for H and He will be reduced by one unit
Partially contracted basis set               ... on
Rotationally invariant grid construction     ... off

Total number of grid points                  ...   343216
Total number of batches                      ...     5424
Average number of points per batch           ...       63
Average number of grid points per atom       ...     2884
UseSFitting                                  ... on

Time for X-Grid setup             =  144.932 sec

--------------
SCF ITERATIONS
--------------
ITER       Energy         Delta-E        Max-DP      RMS-DP      [F,P]     Damp
               ***  Starting incremental Fock matrix formation  ***
  0 -13429.9447261525   0.000000000000 0.55452022  0.00291300  0.1841516 0.7000
  1 -13431.0011944589  -1.056468306324 0.27084441  0.00134418  0.0846662 0.7000
                               ***Turning on DIIS***
  2 -13431.7168752223  -0.715680763462 0.55730033  0.00328448  0.0891854 0.0000
  3 -13433.4523009669  -1.735425744573 0.42363663  0.00192230  0.0741795 0.0000
  4 -13433.4413897180   0.010911248884 0.04073181  0.00028592  0.2153626 0.7000
  5 -13433.5959786713  -0.154588953332 0.05824624  0.00040303  0.1830875 0.7000
  6 -13433.7484358265  -0.152457155149 0.06771046  0.00041599  0.1499208 0.7000
  7 -13433.8691867807  -0.120750954196 0.09241663  0.00044070  0.1238258 0.7000
  8 -13433.9924623184  -0.123275537753 0.07905848  0.00041913  0.1017185 0.7000
  9 -13434.1409604287  -0.148498110240 0.27629989  0.00112750  0.0461316 0.0000
 10 -13434.1769143410  -0.035953912329 0.08256793  0.00031927  0.0748568 0.0000
 11 -13434.1827248642  -0.005810523198 0.04370861  0.00020735  0.0694177 0.0000
 12 -13434.1807652190   0.001959645258 0.02968322  0.00015373  0.0684315 0.0000
 13 -13434.1679136787   0.012851540279 0.02748016  0.00012646  0.0702836 0.0000
 14 -13434.1471999484   0.020713730311 0.24833627  0.00106503  0.0757551 0.0000
 15 -13434.0648359226   0.082364025737 0.03228667  0.00013305  0.1240718 0.7000
 16 -13434.1129878067  -0.048151884030 0.04147112  0.00014307  0.1030156 0.7000
 17 -13434.1493050927  -0.036317286071 0.14071853  0.00045810  0.0858567 0.0000
 18 -13434.2164499338  -0.067144841045 0.03854509  0.00017568  0.0575772 0.0000
 19 -13434.2526673450  -0.036217411222 0.18284891  0.00051561  0.0514308 0.0000
               *** Restarting incremental Fock matrix formation ***
                                   *** Resetting DIIS ***

 WARNING: the maximum gradient error descreased on average only by a factor   1.1
          during the last 20 iterations

                      *** Initiating the TRAH-SCF procedure ***


TRAH GRIDX
----------

General Integration Accuracy     IntAcc      ... 3.067
Radial Grid Type                 RadialGrid  ... OptM3 with GC (2021)
Angular Grid (max. ang.)         AngularGrid ... 1 (Lebedev-50)
Angular grid pruning method      GridPruning ... 4 (adaptive)
Weight generation scheme         WeightScheme... Becke
Basis function cutoff            BFCut       ... 1.0000e-10
Integration weight cutoff        WCut        ... 1.0000e-14
Angular grids for H and He will be reduced by one unit
Partially contracted basis set               ... on
Rotationally invariant grid construction     ... off

Total number of grid points                  ...    40453
Total number of batches                      ...      703
Average number of points per batch           ...       57
Average number of grid points per atom       ...      340


TRAH GRID
---------

General Integration Accuracy     IntAcc      ... 3.467
Radial Grid Type                 RadialGrid  ... OptM3 with GC (2021)
Angular Grid (max. ang.)         AngularGrid ... 1 (Lebedev-50)
Angular grid pruning method      GridPruning ... 4 (adaptive)
Weight generation scheme         WeightScheme... Becke
Basis function cutoff            BFCut       ... 1.0000e-10
Integration weight cutoff        WCut        ... 1.0000e-14
Angular grids for H and He will be reduced by one unit
Partially contracted basis set               ... off
Rotationally invariant grid construction     ... off

Total number of grid points                  ...   100591
Total number of batches                      ...     1631
Average number of points per batch           ...       61
Average number of grid points per atom       ...      845

 --------------------------------------------------------------------------------------------
   Iter.        energy            ||Error||_2        Shift      TRadius  Mac/Mic        Rej.
 --------------------------------------------------------------------------------------------
    0     -13434.302673795810     1.712626e-01                     0.400 (TRAH MAcro)   No
WARNING : small    HOMO - LUMO gap : (op = alpha) 0.004310
WARNING : small    HOMO - LUMO gap : (op =  beta) 0.004608
    0     dE    -9.681671e-03     2.276245e-01    -9.6510e-03      0.056 (TRAH MIcro)
    0     dE    -1.998339e-02     2.299002e-01    -1.8741e-02      0.257 (TRAH MIcro)
    0     dE    -4.251743e-02     1.427301e-01    -1.1753e-01      0.400 (TRAH MIcro)
    0     dE    -4.568804e-02     3.553107e-02    -1.1851e-01      0.400 (TRAH MIcro)
    0     dE    -4.667142e-02     2.129448e-02    -1.2194e-01      0.400 (TRAH MIcro)
    0     dE    -4.683886e-02     5.993019e-03    -1.2248e-01      0.400 (TRAH MIcro)
    1     -13434.346373102924     3.818230e-02                     0.480 (TRAH MAcro)   No
WARNING : small    HOMO - LUMO gap : (op = alpha) 0.016667
WARNING : small    HOMO - LUMO gap : (op =  beta) 0.018468
    1     dE    -3.408631e-03     4.999073e-01    -3.3821e-03      0.089 (TRAH MIcro)
    1     dE    -3.070777e-02     2.770157e-01    -6.5021e-02      0.480 (TRAH MIcro)
    1     dE    -3.337336e-02     6.868901e-02    -7.5507e-02      0.480 (TRAH MIcro)
    1     dE    -3.404012e-02     1.920427e-02    -7.8612e-02      0.480 (TRAH MIcro)
    1     dE    -3.436613e-02     1.884903e-02    -7.9892e-02      0.480 (TRAH MIcro)
    1     dE    -3.439551e-02     6.081148e-03    -8.0314e-02      0.480 (TRAH MIcro)
    1     dE    -3.440866e-02     2.954115e-03    -8.0865e-02      0.480 (TRAH MIcro)
    2     -13434.377464968018     2.942501e-02                     0.576 (TRAH MAcro)   No
    2     dE    -3.400536e-03     5.418659e-01    -3.3568e-03      0.114 (TRAH MIcro)
    2     dE    -3.201592e-02     3.054679e-01    -5.0631e-02      0.576 (TRAH MIcro)
    2     dE    -3.481301e-02     6.465119e-02    -5.9946e-02      0.576 (TRAH MIcro)
    2     dE    -3.565236e-02     6.260976e-02    -6.3842e-02      0.575 (TRAH MIcro)
    2     dE    -3.596374e-02     3.113632e-02    -6.5419e-02      0.576 (TRAH MIcro)
    2     dE    -3.600983e-02     3.297666e-03    -6.5775e-02      0.576 (TRAH MIcro)
    2     dE    -3.601264e-02     1.297324e-03    -6.5805e-02      0.576 (TRAH MIcro)
    3     -13434.404496747111     1.750744e-02                     0.691 (TRAH MAcro)   No
    3     dE    -5.086722e-04     2.502127e-01    -5.0824e-04      0.029 (TRAH MIcro)
    3     dE    -4.091457e-03     7.608940e-02    -3.8702e-03      0.239 (TRAH MIcro)
    3     dE    -4.361173e-03     1.255225e-02    -4.0984e-03      0.253 (TRAH MIcro)
    3     dE    -4.390645e-03     1.160111e-02    -4.1217e-03      0.255 (TRAH MIcro)
    3     dE    -4.402572e-03     2.223512e-03    -4.1303e-03      0.257 (TRAH MIcro)
    3     dE    -4.404211e-03     6.884093e-04    -4.1312e-03      0.257 (TRAH MIcro)
    4     -13434.408561806164     2.946019e-03                     0.829 (TRAH MAcro)   No
    4     dE    -1.094917e-06     1.645271e-02    -1.0949e-06      0.000 (TRAH MIcro)
    4     dE    -1.884585e-05     5.826695e-03    -1.8844e-05      0.011 (TRAH MIcro)
    4     dE    -2.297419e-05     1.792193e-03    -2.2969e-05      0.015 (TRAH MIcro)
    4     dE    -2.349200e-05     4.326147e-04    -2.3486e-05      0.016 (TRAH MIcro)
    4     dE    -2.354870e-05     1.089592e-04    -2.3543e-05      0.016 (TRAH MIcro)
    5     -13434.408585401818     1.111427e-04                           (NR   MAcro)
    5     dE    -6.497922e-09     5.471970e-05                           (NR   MIcro)
    5     dE    -9.108937e-09     2.370147e-05                           (NR   MIcro)
    5     dE    -9.430042e-09     1.065214e-05                           (NR   MIcro)
    5     dE    -9.516598e-09     5.561866e-06                           (NR   MIcro)
    5     dE    -9.553232e-09     3.953713e-06                           (NR   MIcro)
    6     -13434.408585411438     3.949585e-06                           (NR   MAcro)

               *****************************************************
               *                     SUCCESS                       *
               *           SCF CONVERGED AFTER  63 CYCLES          *
               *****************************************************

Old exchange energy                            =   -158.714189305 Eh
New exchange energy                            =   -158.714187960 Eh
Exchange energy change after final integration =      0.000001345 Eh
Total energy after final integration           = -13434.408584067 Eh
Final COS-X integration done in                =  3122.767 sec

----------------
TOTAL SCF ENERGY
----------------

Total Energy       :       -13434.40858407 Eh         -365568.84273 eV

Components:
Nuclear Repulsion  :        18198.98783347 Eh          495219.63543 eV
Electronic Energy  :       -31633.39641754 Eh         -860788.47816 eV
One Electron Energy:       -54958.58336296 Eh        -1495499.08301 eV
Two Electron Energy:        23325.18694542 Eh          634710.60485 eV
Max COSX asymmetry :            0.00000114 Eh               0.00003 eV

Virial components:
Potential Energy   :       -26843.09721609 Eh         -730437.80999 eV
Kinetic Energy     :        13408.68863202 Eh          364868.96726 eV
Virial Ratio       :            2.00191816


DFT components:
N(Alpha)           :      316.999607749868 electrons
N(Beta)            :      315.999591330002 electrons
N(Total)           :      632.999199079870 electrons
E(X)               :     -632.124755707285 Eh       
E(C)               :      -28.246458384338 Eh       
E(XC)              :     -660.371214091623 Eh       
DFET-embed. en.    :        0.000000000000 Eh       

---------------
SCF CONVERGENCE
---------------

[...]
      px      :    -0.001240
      py      :    -0.017990
      dz2     :    -0.000257  d :    -0.000233
      dxz     :     0.000004
      dyz     :    -0.000104
      dx2y2   :     0.000074
      dxy     :     0.000050
100 O s       :    -0.007955  s :    -0.007955
      pz      :    -0.006870  p :    -0.471044
      px      :     0.002684
      py      :    -0.466858
      dz2     :     0.000086  d :    -0.001926
      dxz     :    -0.000011
      dyz     :    -0.000014
      dx2y2   :    -0.000461
      dxy     :    -0.001526
101 H s       :    -0.000045  s :    -0.000045
      pz      :     0.000008  p :     0.000009
      px      :     0.000001
      py      :    -0.000000
102 H s       :     0.000116  s :     0.000116
      pz      :     0.000004  p :    -0.000000
      px      :    -0.000002
      py      :    -0.000002
103 H s       :     0.000572  s :     0.000572
      pz      :    -0.000010  p :    -0.000031
      px      :     0.000025
      py      :    -0.000047
104 H s       :    -0.000125  s :    -0.000125
      pz      :    -0.000085  p :    -0.000114
      px      :     0.000015
      py      :    -0.000045
105 H s       :     0.000312  s :     0.000312
      pz      :    -0.000012  p :    -0.000062
      px      :    -0.000005
      py      :    -0.000045
106 H s       :    -0.000498  s :    -0.000498
      pz      :    -0.000111  p :    -0.000208
      px      :     0.000017
      py      :    -0.000114
107 H s       :     0.000388  s :     0.000388
      pz      :     0.000016  p :    -0.000089
      px      :    -0.000001
      py      :    -0.000103
108 H s       :     0.000455  s :     0.000455
      pz      :    -0.000129  p :    -0.000125
      px      :     0.000003
      py      :     0.000002
109 H s       :     0.000757  s :     0.000757
      pz      :    -0.000120  p :    -0.000184
      px      :    -0.000064
      py      :     0.000000
110 H s       :     0.000430  s :     0.000430
      pz      :    -0.000071  p :    -0.000568
      px      :    -0.000069
      py      :    -0.000427
111 H s       :     0.000615  s :     0.000615
      pz      :    -0.000006  p :    -0.000492
      px      :    -0.000046
      py      :    -0.000441
112 H s       :    -0.002125  s :    -0.002125
      pz      :    -0.000048  p :    -0.000794
      px      :    -0.000027
      py      :    -0.000719
113 H s       :     0.000558  s :     0.000558
      pz      :    -0.000026  p :    -0.000435
      px      :    -0.000050
      py      :    -0.000359
114 H s       :     0.000470  s :     0.000470
      pz      :    -0.000272  p :    -0.000821
      px      :    -0.000166
      py      :    -0.000383
115 H s       :    -0.001167  s :    -0.001167
      pz      :    -0.000144  p :    -0.000804
      px      :    -0.000110
      py      :    -0.000551
116 H s       :     0.000525  s :     0.000525
      pz      :    -0.000166  p :    -0.000157
      px      :     0.000007
      py      :     0.000002
117 H s       :    -0.000078  s :    -0.000078
      pz      :     0.000009  p :    -0.000191
      px      :    -0.000031
      py      :    -0.000169
118 H s       :     0.000625  s :     0.000625
      pz      :    -0.000142  p :    -0.000215
      px      :    -0.000064
      py      :    -0.000009


                      *****************************
                      * MAYER POPULATION ANALYSIS *
                      *****************************

  NA   - Mulliken gross atomic population
  ZA   - Total nuclear charge
  QA   - Mulliken gross atomic charge
  VA   - Mayer's total valence
  BVA  - Mayer's bonded valence
  FA   - Mayer's free valence

  ATOM       NA         ZA         QA         VA         BVA        FA
  0 C      6.0453     6.0000    -0.0453     4.0287     4.0286     0.0001
  1 H      0.8708     1.0000     0.1292     0.9848     0.9848     0.0000
  2 C      5.9551     6.0000     0.0449     3.8609     3.8609     0.0001
  3 C      6.1073     6.0000    -0.1073     3.8401     3.8399     0.0002
  4 H      0.8830     1.0000     0.1170     0.9601     0.9601     0.0000
  5 C      5.9635     6.0000     0.0365     3.8120     3.8120     0.0001
  6 C      6.1564     6.0000    -0.1564     3.8747     3.8744     0.0003
  7 H      0.9279     1.0000     0.0721     0.9738     0.9737     0.0000
  8 C      6.1261     6.0000    -0.1261     3.8838     3.8838     0.0000
  9 H      0.8932     1.0000     0.1068     0.9719     0.9719    -0.0000
 10 C      6.0573     6.0000    -0.0573     3.7767     3.7767     0.0000
 11 H      0.8724     1.0000     0.1276     0.9617     0.9617     0.0000
 12 N      7.1831     7.0000    -0.1831     3.0436     3.0393     0.0043
 13 N      7.1707     7.0000    -0.1707     3.0557     3.0513     0.0045
 14 Zn    29.7951    30.0000     0.2049     1.7969     0.8332     0.9637
 15 C      6.0243     6.0000    -0.0243     4.0155     4.0155     0.0000
 16 H      0.8720     1.0000     0.1280     0.9860     0.9860     0.0000
 17 C      5.9606     6.0000     0.0394     3.7937     3.7936     0.0001
 18 C      6.1033     6.0000    -0.1033     3.8380     3.8378     0.0002
 19 H      0.8882     1.0000     0.1118     0.9631     0.9630     0.0001
 20 C      6.0026     6.0000    -0.0026     3.8750     3.8749     0.0001
 21 C      6.0669     6.0000    -0.0669     3.8460     3.8457     0.0002
 22 H      0.8873     1.0000     0.1127     0.9644     0.9644     0.0000
 23 C      6.1296     6.0000    -0.1296     3.8339     3.8339     0.0000
 24 H      0.8749     1.0000     0.1251     0.9641     0.9641     0.0000
 25 C      6.1426     6.0000    -0.1426     3.9250     3.9250     0.0000
 26 H      0.8968     1.0000     0.1032     0.9731     0.9731    -0.0000
 27 N      7.1883     7.0000    -0.1883     3.0437     3.0397     0.0040
 28 N      7.1953     7.0000    -0.1953     3.0267     3.0227     0.0040
 29 Zn    29.7792    30.0000     0.2208     1.8078     0.8410     0.9668
 30 C      6.0369     6.0000    -0.0369     4.0469     4.0468     0.0001
 31 H      0.8711     1.0000     0.1289     0.9850     0.9850     0.0000
 32 C      5.9346     6.0000     0.0654     3.8556     3.8556     0.0000
 33 C      6.0432     6.0000    -0.0432     3.8816     3.8813     0.0004
 34 H      0.8815     1.0000     0.1185     0.9581     0.9581     0.0000
 35 C      5.9312     6.0000     0.0688     3.8651     3.8650     0.0001
 36 C      6.0673     6.0000    -0.0673     3.8790     3.8784     0.0005
 37 H      0.8871     1.0000     0.1129     0.9680     0.9679     0.0000
 38 C      6.2346     6.0000    -0.2346     3.9703     3.9703     0.0000
 39 H      0.8985     1.0000     0.1015     0.9762     0.9762     0.0000
 40 C      6.1584     6.0000    -0.1584     3.9266     3.9266     0.0000
 41 H      0.8961     1.0000     0.1039     0.9712     0.9712     0.0000
 42 N      7.1927     7.0000    -0.1927     3.0918     3.0874     0.0044
 43 N      7.1775     7.0000    -0.1775     3.0731     3.0686     0.0044
 44 Zn    29.7957    30.0000     0.2043     1.8009     0.8474     0.9535
 45 C      6.0286     6.0000    -0.0286     4.0560     4.0559     0.0001
 46 H      0.8778     1.0000     0.1222     0.9838     0.9838     0.0000
 47 C      5.9468     6.0000     0.0532     3.9026     3.9026    -0.0000
 48 C      6.1397     6.0000    -0.1397     3.8544     3.8541     0.0004
 49 H      0.8949     1.0000     0.1051     0.9634     0.9634     0.0000
 50 C      5.9968     6.0000     0.0032     3.8872     3.8872     0.0000
 51 C      6.0712     6.0000    -0.0712     3.8937     3.8933     0.0005
 52 H      0.8909     1.0000     0.1091     0.9668     0.9667     0.0000
 53 C      6.1098     6.0000    -0.1098     3.8861     3.8861     0.0000
 54 H      0.9060     1.0000     0.0940     0.9754     0.9754     0.0000
 55 C      6.1544     6.0000    -0.1544     3.9489     3.9489     0.0000
 56 H      0.8917     1.0000     0.1083     0.9741     0.9741     0.0000
 57 N      7.1637     7.0000    -0.1637     3.0569     3.0527     0.0042
 58 N      7.1839     7.0000    -0.1839     3.0712     3.0670     0.0042
 59 Zn    29.7902    30.0000     0.2098     1.7919     0.8406     0.9513
 60 C      6.0447     6.0000    -0.0447     4.0211     4.0210     0.0001
 61 H      0.8757     1.0000     0.1243     0.9901     0.9901     0.0000
 62 C      5.9135     6.0000     0.0865     3.7576     3.7576     0.0000
 63 C      6.1103     6.0000    -0.1103     3.8633     3.8630     0.0003
 64 H      0.9007     1.0000     0.0993     0.9618     0.9618     0.0000
 65 C      5.9732     6.0000     0.0268     3.8379     3.8379     0.0001
 66 C      6.0714     6.0000    -0.0714     3.8044     3.8041     0.0002
 67 H      0.8835     1.0000     0.1165     0.9544     0.9544     0.0000
 68 C      6.1740     6.0000    -0.1740     3.8374     3.8374     0.0000
 69 H      0.8891     1.0000     0.1109     0.9718     0.9718     0.0000
 70 C      6.1743     6.0000    -0.1743     3.9213     3.9213     0.0000
 71 H      0.8924     1.0000     0.1076     0.9759     0.9759     0.0000
 72 N      7.2083     7.0000    -0.2083     3.0410     3.0351     0.0059
 73 N      7.2075     7.0000    -0.2075     3.0182     3.0127     0.0055
 74 Zn    29.7783    30.0000     0.2217     1.7635     0.8153     0.9482
 75 C      6.0458     6.0000    -0.0458     4.0343     4.0342     0.0001
 76 H      0.8721     1.0000     0.1279     0.9858     0.9858     0.0000
 77 C      5.9591     6.0000     0.0409     3.7809     3.7809     0.0001
 78 C      6.1177     6.0000    -0.1177     3.8560     3.8558     0.0002
 79 H      0.8898     1.0000     0.1102     0.9611     0.9611     0.0000
 80 C      5.9683     6.0000     0.0317     3.8235     3.8234     0.0001
 81 C      6.1182     6.0000    -0.1182     3.8765     3.8764     0.0002
 82 H      0.9086     1.0000     0.0914     0.9734     0.9734     0.0000
 83 C      6.1191     6.0000    -0.1191     3.8444     3.8444     0.0000
 84 H      0.8867     1.0000     0.1133     0.9676     0.9676     0.0000
 85 C      6.0961     6.0000    -0.0961     3.8303     3.8303     0.0000
 86 H      0.8657     1.0000     0.1343     0.9603     0.9603     0.0000
 87 N      7.1756     7.0000    -0.1756     3.0453     3.0416     0.0037
 88 N      7.1932     7.0000    -0.1932     3.0052     3.0018     0.0034
 89 Zn    29.7838    30.0000     0.2162     1.8062     0.8624     0.9438
 90 N      6.9818     7.0000     0.0182     3.1508     2.9548     0.1959
 91 C      5.9161     6.0000     0.0839     3.3942     3.3935     0.0007
 92 C      6.3521     6.0000    -0.3521     3.4271     3.4269     0.0001
 93 C      6.2016     6.0000    -0.2016     3.4525     3.4525     0.0000
 94 C      6.2551     6.0000    -0.2551     3.5123     3.5122     0.0001
 95 C      5.9005     6.0000     0.0995     3.4100     3.4096     0.0004
 96 C      6.4284     6.0000    -0.4284     3.7029     3.7018     0.0010
 97 C      6.3587     6.0000    -0.3587     3.6807     3.6803     0.0004
 98 C      6.3554     6.0000    -0.3554     3.6400     3.6397     0.0003
 99 C      6.4108     6.0000    -0.4108     3.5935     3.5925     0.0011
100 O      8.2670     8.0000    -0.2670     1.8435     1.5998     0.2437
101 H      0.8806     1.0000     0.1194     0.9850     0.9850     0.0000
102 H      0.8633     1.0000     0.1367     0.9117     0.9117     0.0000
103 H      0.8367     1.0000     0.1633     0.9438     0.9438     0.0000
104 H      0.8119     1.0000     0.1881     0.9215     0.9215     0.0000
105 H      0.8803     1.0000     0.1197     0.9736     0.9736     0.0000
106 H      0.8156     1.0000     0.1844     0.8969     0.8969     0.0000
107 H      0.8680     1.0000     0.1320     0.9746     0.9746     0.0000
108 H      0.8292     1.0000     0.1708     0.9215     0.9215    -0.0000
109 H      0.9052     1.0000     0.0948     0.9641     0.9641     0.0000
110 H      0.7733     1.0000     0.2267     0.8719     0.8719     0.0000
111 H      0.8628     1.0000     0.1372     0.9199     0.9199     0.0000
112 H      0.9097     1.0000     0.0903     0.9719     0.9719     0.0000
113 H      0.8339     1.0000     0.1661     0.8649     0.8649     0.0000
114 H      0.8363     1.0000     0.1637     0.9549     0.9549     0.0000
115 H      0.8785     1.0000     0.1215     0.9484     0.9484     0.0000
116 H      0.8496     1.0000     0.1504     0.9624     0.9624    -0.0000
117 H      0.8698     1.0000     0.1302     0.9509     0.9509     0.0000
118 H      0.8993     1.0000     0.1007     0.9631     0.9631     0.0000

  Mayer bond orders larger than 0.100000
B(  0-C ,  1-H ) :   0.9579 B(  0-C , 13-N ) :   1.4312 B(  0-C , 27-N ) :   1.4131 
B(  2-C ,  3-C ) :   1.2891 B(  2-C , 13-N ) :   1.1863 B(  2-C , 20-C ) :   1.4167 
B(  3-C ,  4-H ) :   0.9387 B(  3-C ,  8-C ) :   1.4969 B(  5-C ,  6-C ) :   1.3037 
B(  5-C , 12-N ) :   1.1750 B(  5-C , 32-C ) :   1.4002 B(  5-C , 43-N ) :  -0.1054 
B(  6-C ,  7-H ) :   0.9839 B(  6-C , 10-C ) :   1.4688 B(  8-C ,  9-H ) :   0.9615 
B(  8-C , 25-C ) :   1.3491 B( 10-C , 11-H ) :   0.9316 B( 10-C , 38-C ) :   1.3354 
B( 12-N , 14-Zn) :   0.4489 B( 12-N , 30-C ) :   1.4174 B( 12-N , 32-C ) :  -0.1040 
B( 13-N , 14-Zn) :   0.4355 B( 13-N , 20-C ) :  -0.1069 B( 15-C , 16-H ) :   0.9576 
B( 15-C , 28-N ) :   1.4168 B( 15-C , 72-N ) :   1.4357 B( 17-C , 18-C ) :   1.3126 
B( 17-C , 28-N ) :   1.1439 B( 17-C , 65-C ) :   1.3618 B( 18-C , 19-H ) :   0.9468 
B( 18-C , 23-C ) :   1.4582 B( 20-C , 21-C ) :   1.3286 B( 20-C , 27-N ) :   1.1694 
B( 21-C , 22-H ) :   0.9063 B( 21-C , 25-C ) :   1.5144 B( 23-C , 24-H ) :   0.9525 
B( 23-C , 70-C ) :   1.3611 B( 25-C , 26-H ) :   0.9680 B( 27-N , 29-Zn) :   0.4421 
B( 28-N , 29-Zn) :   0.4398 B( 30-C , 31-H ) :   0.9526 B( 30-C , 43-N ) :   1.4405 
B( 32-C , 33-C ) :   1.3349 B( 32-C , 43-N ) :   1.1570 B( 33-C , 34-H ) :   0.9165 
B( 33-C , 38-C ) :   1.5018 B( 35-C , 36-C ) :   1.3157 B( 35-C , 42-N ) :   1.1514 
B( 35-C , 47-C ) :   1.4418 B( 35-C , 58-N ) :  -0.1116 B( 36-C , 37-H ) :   0.8958 
B( 36-C , 40-C ) :   1.5232 B( 38-C , 39-H ) :   0.9829 B( 40-C , 41-H ) :   0.9603 
B( 40-C , 53-C ) :   1.3416 B( 42-N , 44-Zn) :   0.4427 B( 42-N , 45-C ) :   1.4517 
B( 43-N , 44-Zn) :   0.4478 B( 45-C , 46-H ) :   0.9516 B( 45-C , 58-N ) :   1.4311 
B( 47-C , 48-C ) :   1.2719 B( 47-C , 58-N ) :   1.1847 B( 48-C , 49-H ) :   0.9451 
B( 48-C , 53-C ) :   1.5094 B( 50-C , 51-C ) :   1.3387 B( 50-C , 57-N ) :   1.1907 
B( 50-C , 77-C ) :   1.4023 B( 51-C , 52-H ) :   0.9281 B( 51-C , 55-C ) :   1.5102 
B( 53-C , 54-H ) :   0.9654 B( 55-C , 56-H ) :   0.9698 B( 55-C , 83-C ) :   1.3472 
B( 57-N , 59-Zn) :   0.4216 B( 57-N , 75-C ) :   1.4394 B( 57-N , 77-C ) :  -0.1121 
B( 58-N , 59-Zn) :   0.4515 B( 60-C , 61-H ) :   0.9640 B( 60-C , 73-N ) :   1.4387 
B( 60-C , 87-N ) :   1.4280 B( 62-C , 63-C ) :   1.3057 B( 62-C , 73-N ) :   1.1408 
B( 62-C , 80-C ) :   1.3595 B( 63-C , 64-H ) :   0.9684 B( 63-C , 68-C ) :   1.4748 
B( 65-C , 66-C ) :   1.3219 B( 65-C , 72-N ) :   1.1566 B( 66-C , 67-H ) :   0.9369 
B( 66-C , 70-C ) :   1.4613 B( 68-C , 69-H ) :   0.9755 B( 68-C , 85-C ) :   1.3179 
B( 70-C , 71-H ) :   0.9853 B( 72-N , 74-Zn) :   0.4186 B( 73-N , 74-Zn) :   0.4260 
B( 75-C , 76-H ) :   0.9572 B( 75-C , 88-N ) :   1.4165 B( 77-C , 78-C ) :   1.3058 
B( 77-C , 88-N ) :   1.1294 B( 78-C , 79-H ) :   0.9436 B( 78-C , 83-C ) :   1.4895 
B( 80-C , 81-C ) :   1.3069 B( 80-C , 87-N ) :   1.1784 B( 81-C , 82-H ) :   0.9648 
B( 81-C , 85-C ) :   1.5030 B( 83-C , 84-H ) :   0.9522 B( 85-C , 86-H ) :   0.9398 
B( 87-N , 89-Zn) :   0.4333 B( 88-N , 89-Zn) :   0.4513 B( 90-N , 91-C ) :   0.8339 
B( 90-N , 95-C ) :   0.8431 B( 90-N ,100-O ) :   1.4316 B( 91-C , 92-C ) :   0.8056 
B( 91-C , 96-C ) :   0.9381 B( 91-C , 97-C ) :   0.9195 B( 92-C , 93-C ) :   0.8577 
B( 92-C ,103-H ) :   0.9689 B( 92-C ,104-H ) :   1.0026 B( 93-C , 94-C ) :   0.8285 
B( 93-C ,101-H ) :   1.0172 B( 93-C ,102-H ) :   0.9490 B( 94-C , 95-C ) :   0.8946 
B( 94-C ,105-H ) :   0.9497 B( 94-C ,106-H ) :   0.9992 B( 95-C , 98-C ) :   0.8780 
B( 95-C , 99-C ) :   0.8579 B( 96-C ,113-H ) :   0.9197 B( 96-C ,114-H ) :   0.9780 
B( 96-C ,115-H ) :   0.9633 B( 97-C ,116-H ) :   0.9792 B( 97-C ,117-H ) :   0.9554 
B( 97-C ,118-H ) :   0.9770 B( 98-C ,107-H ) :   0.9699 B( 98-C ,108-H ) :   0.9504 
B( 98-C ,109-H ) :   0.9781 B( 99-C ,110-H ) :   0.9462 B( 99-C ,111-H ) :   0.9609 
B( 99-C ,112-H ) :   0.9582 

-------
TIMINGS
-------

Total SCF time: 0 days 16 hours 6 min 32 sec 

Total time                  ....   57992.350 sec
Sum of individual times     ....   57793.363 sec  ( 99.7%)

Fock matrix formation       ....   56860.807 sec  ( 98.0%)
  Split-RI-J                ....    9287.482 sec  ( 16.3% of F)
  Chain of spheres X        ....   44067.717 sec  ( 77.5% of F)
  XC integration            ....    3407.006 sec  (  6.0% of F)
    Basis function eval.    ....     441.593 sec  ( 13.0% of XC)
    Density eval.           ....    1745.044 sec  ( 51.2% of XC)
    XC-Functional eval.     ....      47.511 sec  (  1.4% of XC)
    XC-Potential eval.      ....    1007.388 sec  ( 29.6% of XC)
Diagonalization             ....     227.618 sec  (  0.4%)
Density matrix formation    ....      31.278 sec  (  0.1%)
Population analysis         ....       9.803 sec  (  0.0%)
Initial guess               ....      97.779 sec  (  0.2%)
Orbital Transformation      ....     198.219 sec  (  0.3%)
Orbital Orthonormalization  ....       0.000 sec  (  0.0%)
DIIS solution               ....      87.683 sec  (  0.2%)
Grid generation             ....     280.142 sec  (  0.5%)

Maximum memory used throughout the entire SCF-calculation: 1705.2 MB

-------------------------   --------------------
FINAL SINGLE POINT ENERGY    -13434.408584066628
-------------------------   --------------------


                            ***************************************
                            *     ORCA property calculations      *
                            ***************************************

                                    ---------------------
                                    Active property flags
                                    ---------------------
   (+) Dipole Moment


------------------------------------------------------------------------------
                       ORCA ELECTRIC PROPERTIES CALCULATION
------------------------------------------------------------------------------

Dipole Moment Calculation                       ... on
Quadrupole Moment Calculation                   ... off
Polarizability Calculation                      ... off
GBWName                                         ... zif7_tempo_lpA.gbw
Electron density                                ... zif7_tempo_lpA.scfp
The origin for moment calculation is the CENTER OF MASS  = (65.149750, 62.719005 49.645630)

-------------
DIPOLE MOMENT
-------------
                                X             Y             Z
Electronic contribution:      2.71421       0.79570       1.30853
Nuclear contribution   :     -3.92640      -0.83786      -1.37143
                        -----------------------------------------
Total Dipole Moment    :     -1.21219      -0.04216      -0.06290
                        -----------------------------------------
Magnitude (a.u.)       :      1.21455
Magnitude (Debye)      :      3.08715



--------------------
Rotational spectrum 
--------------------
 
Rotational constants in cm-1:     0.000866     0.000858     0.000552 
Rotational constants in MHz :    25.976491    25.719172    16.561939 

 Dipole components along the rotational axes: 
x,y,z [a.u.] :     1.118269    -0.468716    -0.070144 
x,y,z [Debye]:     2.842415    -1.191381    -0.178291 

 

Timings for individual modules:

Sum of individual times         ...    58010.181 sec (= 966.836 min)
GTO integral calculation        ...       17.229 sec (=   0.287 min)   0.0 %
SCF iterations                  ...    57992.952 sec (= 966.549 min) 100.0 %
                             ****ORCA TERMINATED NORMALLY****
TOTAL RUN TIME: 0 days 16 hours 6 minutes 54 seconds 902 msec
